LAMMPS configuration data file

  444 atoms

  2 atom types

  -34.976699  34.976699  xlo xhi
  -32.970199  32.970199  ylo yhi
  -32.664589  32.664589  zlo zhi

 Masses

  1   112.411
  2   78.960

 Atoms

        1   1    0.02206210 -2.45699982  2.20494984 
        2   1    4.29897969 -2.45631982  2.20524984 
        3   2    4.29897969 -2.45752982 -0.41407997 
        4   1    8.57588938 -2.45699982  2.20494984 
        5   1   -2.11679985  1.24760991  2.20494984 
        6   1    2.16122984  1.24778991  2.20588984 
        7   2    2.16042985  1.24732991 -0.41296497 
        8   1    6.43672953  1.24778991  2.20588984 
        9   1    4.29897969  0.01235180 -1.28714991 
       10   2    6.43752953  1.24732991 -0.41296497 
       11   1    10.71479923  1.24760991  2.20494984 
       12   1    0.02224960  4.95118964  2.20524984 
       13   2    0.02121070  4.95178964 -0.41407997 
       14   1    4.29897969  4.95047964  2.20588984 
       15   1    2.16018984  3.71684973 -1.28714991 
       16   2    4.29897969  4.95139964 -0.41296497 
       17   1    8.57570938  4.95118964  2.20524984 
       18   1    6.43776954  3.71684973 -1.28714991 
       19   2    8.57674938  4.95178964 -0.41407997 
       20   1    2.16011984  8.65543937  2.20494984 
       21   1    6.43783954  8.65543937  2.20494984 
       22   2    0.02206290 -2.45699982  6.57030953 
       23   1    4.29897969 -2.45752982  9.18932934 
       24   1    2.16026984 -3.69298973  5.69709959 
       25   2    4.29897969 -2.45631982  6.57000952 
       26   2    2.16027984 -3.69298973  3.07814978 
       27   1    6.43767953 -3.69298973  5.69709959 
       28   2    8.57588938 -2.45699982  6.57030953 
       29   2    6.43767953 -3.69298973  3.07814978 
       30   2   -2.11678985  1.24760991  6.57030953 
       31   1    2.16042985  1.24731991  9.18821934 
       32   1    0.02217920  0.01280510  5.69695959 
       33   2    2.16122984  1.24778991  6.56935953 
       34   2    0.02218030  0.01280560  3.07828978 
       35   1    6.43752953  1.24731991  9.18821934 
       36   1    4.29897969  0.01323680  5.69621959 
       37   2    6.43672953  1.24778991  6.56935953 
       38   2    4.29897969  0.01323720  3.07902978 
       39   1    8.57577938  0.01280490  5.69695959 
       40   2    10.71479923  1.24760991  6.57030953 
       41   2    8.57577938  0.01280520  3.07828978 
       42   1    0.02120930  4.95178964  9.18932934 
       43   1   -2.11807985  3.71734973  5.69709959 
       44   2    0.02225080  4.95118964  6.57000952 
       45   2   -2.11807985  3.71734973  3.07814978 
       46   1    4.29897969  4.95139964  9.18821934 
       47   1    2.16094985  3.71640973  5.69621959 
       48   2    4.29897969  4.95047964  6.56935953 
       49   2    2.16094985  3.71640973  3.07902978 
       50   1    8.57674938  4.95178964  9.18932934 
       51   1    6.43699954  3.71640973  5.69621959 
       52   2    8.57570938  4.95118964  6.57000952 
       53   2    6.43699954  3.71640973  3.07902978 
       54   1    10.71599922  3.71734973  5.69709959 
       55   2    10.71599922  3.71734973  3.07814978 
       56   1    0.02061910  7.42168946  5.69709959 
       57   2    2.16011984  8.65543937  6.57030953 
       58   2    0.02062040  7.42168946  3.07814978 
       59   1    4.29897969  7.42043946  5.69695959 
       60   2    6.43783954  8.65543937  6.57030953 
       61   2    4.29897969  7.42043946  3.07829978 
       62   1    8.57733938  7.42168946  5.69709959 
       63   2    8.57733938  7.42168946  3.07814978 
       64   2    4.29897969  0.01235200  10.06239927 
       65   2    2.16018984  3.71684973  10.06239927 
       66   2    6.43776954  3.71684973  10.06239927 
       67   2    0.02250900 -2.45701982 -0.41433797 
       68   2   -2.11729985 -3.69288974  3.07784978 
       69   1    6.43701953 -3.69248974 -1.28809991 
       70   1    2.16093985 -3.69248974 -1.28809991 
       71   2    8.57544938 -2.45701982 -0.41433797 
       72   2    10.71529923 -3.69288974  3.07784978 
       73   2   -2.11658985  1.24799991 -0.41433797 
       74   2   -4.25678969  0.01281200  3.07784978 
       75   1    0.02225910  0.01285120 -1.28811991 
       76   2    4.29897969  0.01241580 -3.90693972 
       77   1    8.57569938  0.01285110 -1.28811991 
       78   2    10.71449922  1.24799991 -0.41433797 
       79   2    12.85469907  0.01281150  3.07784978 
       80   1   -2.11731985  3.71766973 -1.28809991 
       81   1    0.02072070  7.42085946 -1.28809991 
       82   2    2.16023984  3.71681973 -3.90693972 
       83   1    4.29897969  7.42034946 -1.28811991 
       84   2    6.43771953  3.71681973 -3.90693972 
       85   1    10.71529923  3.71766973 -1.28809991 
       86   1    8.57723938  7.42085946 -1.28809991 
       87   2    2.15987985  8.65506937 -0.41433797 
       88   2    2.15948985  11.12609920  3.07784978 
       89   2    6.43806954  8.65505937 -0.41433797 
       90   2    6.43846954  11.12609920  3.07784978 
       91   1   -2.11729985 -3.69288974  5.69739959 
       92   1    0.02250790 -2.45701982  9.18958934 
       93   2    2.16093985 -3.69248974  10.06339927 
       94   2    6.43701953 -3.69248974  10.06339927 
       95   2    2.16032984 -6.16353956  6.57004953 
       96   1    2.16032984 -6.16353956  2.20519984 
       97   2    6.43761954 -6.16353956  6.57004953 
       98   1    10.71529923 -3.69288974  5.69739959 
       99   1    8.57544938 -2.45701982  9.18958934 
      100   1    6.43761954 -6.16353956  2.20519984 
      101   1   -4.25678969  0.01281160  5.69739959 
      102   1   -2.11658985  1.24799991  9.18958934 
      103   2    0.02225970  0.01285150  10.06339927 
      104   2    8.57569938  0.01285130  10.06339927 
      105   1    12.85469907  0.01281140  5.69739959 
      106   1    10.71449922  1.24799991  9.18958934 
      107   2   -2.11731985  3.71766973  10.06339927 
      108   2    0.02072130  7.42085946  10.06339927 
      109   2   -4.25760969  4.95266964  6.57004953 
      110   1   -4.25760969  4.95266964  2.20519984 
      111   2    4.29897969  7.42034946  10.06339927 
      112   2    10.71529923  3.71766973  10.06339927 
      113   2    8.57723938  7.42085946  10.06339927 
      114   2    12.85559907  4.95266964  6.57004953 
      115   1    12.85559907  4.95266964  2.20519984 
      116   2   -2.11896985  8.65690938  6.57004953 
      117   1    2.15948985  11.12609920  5.69739959 
      118   1    2.15987985  8.65505937  9.18958934 
      119   1   -2.11896985  8.65690938  2.20519984 
      120   1    6.43846954  11.12609920  5.69739959 
      121   1    6.43806954  8.65505937  9.18958934 
      122   2    10.71689923  8.65690938  6.57004953 
      123   1    10.71689923  8.65690938  2.20519984 
      124   1    4.29897969  0.01241550  12.68219908 
      125   1    2.16023984  3.71681973  12.68219908 
      126   1    6.43770953  3.71681973  12.68219908 
      127   1   -2.11592985 -3.69168973 -1.28879990 
      128   1   -2.11788985 -6.16357956  2.20531984 
      129   1   -4.25659969 -2.45754982  2.20484984 
      130   2    6.43667954 -3.69235973 -3.90761972 
      131   2    6.43710954 -6.16345955 -0.41455597 
      132   2    2.16127984 -3.69235973 -3.90761972 
      133   2    2.16084984 -6.16345955 -0.41455597 
      134   1    10.71389923 -3.69168973 -1.28879990 
      135   1    10.71579923 -6.16357956  2.20531984 
      136   1    12.85459907 -2.45754982  2.20484984 
      137   1   -4.25505969  0.01339530 -1.28879990 
      138   1   -6.39675954  1.24763991  2.20531984 
      139   2    0.02281200  0.01317030 -3.90777972 
      140   1    4.29897969 -2.45666982 -4.78164965 
      141   1    2.16120984  1.24776991 -4.78209965 
      142   1    6.43674954  1.24776991 -4.78209965 
      143   2    8.57514938  0.01317010 -3.90777972 
      144   1    12.85299907  0.01339510 -1.28879990 
      145   1    14.99469892  1.24763991  2.20531984 
      146   2   -2.11703985  3.71789973 -3.90761972 
      147   2   -4.25728969  4.95307964 -0.41455597 
      148   2    0.02066110  7.42050947 -3.90761972 
      149   2   -2.11915985  8.65642938 -0.41455597 
      150   1    0.02194680  4.95135964 -4.78164965 
      151   1    4.29897969  4.95049964 -4.78209965 
      152   2    4.29897969  7.41970946 -3.90777972 
      153   1    8.57600938  4.95135964 -4.78164965 
      154   2    10.71499923  3.71789973 -3.90761972 
      155   2    12.85519907  4.95307964 -0.41455597 
      156   2    8.57729938  7.42050947 -3.90761972 
      157   2    10.71709923  8.65642938 -0.41455597 
      158   1    2.15984985  11.12429919 -1.28879990 
      159   1    0.02010840  12.36199911  2.20531984 
      160   1    4.29897969  12.36109911  2.20484984 
      161   1    6.43810953  11.12429919 -1.28879990 
      162   1    8.57784938  12.36199911  2.20531984 
      163   2   -2.11788985 -6.16357956  6.56992952 
      164   2   -4.25659969 -2.45754982  6.57039953 
      165   2   -2.11592985 -3.69168973  10.06399927 
      166   1    2.16084984 -6.16345955  9.18980934 
      167   1    2.16127984 -3.69235973  12.68289908 
      168   1    6.43710954 -6.16345955  9.18980934 
      169   1    6.43667954 -3.69235973  12.68289908 
      170   1    4.29897969 -7.39982946  5.69726959 
      171   1    0.02093470 -7.39909946  5.69729959 
      172   2    0.02093520 -7.39909946  3.07795978 
      173   2    4.29897969 -7.39982946  3.07797978 
      174   1    8.57701938 -7.39909946  5.69729959 
      175   2    10.71579923 -6.16357956  6.56992952 
      176   2    12.85459907 -2.45754982  6.57039953 
      177   2    10.71389923 -3.69168973  10.06399927 
      178   2    8.57701938 -7.39909946  3.07795978 
      179   2   -6.39675954  1.24763991  6.56992952 
      180   2   -4.25505969  0.01339550  10.06399927 
      181   1    0.02281090  0.01316990  12.68299908 
      182   1    8.57513938  0.01316980  12.68299908 
      183   2    14.99469892  1.24763991  6.56992952 
      184   2    12.85299907  0.01339520  10.06399927 
      185   1   -4.25728969  4.95307964  9.18980934 
      186   1   -2.11703985  3.71789973  12.68289908 
      187   1   -2.11915985  8.65642938  9.18980934 
      188   1    0.02066010  7.42050947  12.68289908 
      189   1   -6.39733954  3.71767973  5.69729959 
      190   1   -4.25894969  7.42293946  5.69726959 
      191   2   -6.39733954  3.71767973  3.07795978 
      192   2   -4.25894969  7.42293946  3.07797978 
      193   1    4.29897969  7.41970946  12.68299908 
      194   1    12.85519907  4.95307964  9.18980934 
      195   1    10.71499923  3.71789973  12.68289908 
      196   1    10.71709923  8.65642938  9.18980934 
      197   1    8.57729938  7.42050947  12.68289908 
      198   1    14.99529892  3.71767973  5.69729959 
      199   1    12.85689907  7.42293946  5.69726959 
      200   2    14.99529892  3.71767973  3.07795978 
      201   2    12.85689907  7.42293946  3.07797978 
      202   1   -2.11928985  11.12749920  5.69729959 
      203   2    4.29897969  12.36119911  6.57039953 
      204   2    0.02010890  12.36199911  6.56992952 
      205   2    2.15984985  11.12429919  10.06399927 
      206   2   -2.11928985  11.12749920  3.07795978 
      207   2    8.57784938  12.36199911  6.56992952 
      208   2    6.43810953  11.12429919  10.06399927 
      209   1    10.71729923  11.12749920  5.69729959 
      210   2    10.71729923  11.12749920  3.07795978 
      211   2    4.29897969 -2.45666982  13.55689902 
      212   2    6.43674954  1.24776991  13.55739902 
      213   2    2.16120984  1.24776991  13.55739902 
      214   2    4.29897969  4.95049964  13.55739902 
      215   2    0.02194720  4.95135964  13.55689902 
      216   2    8.57600938  4.95135964  13.55689902 
      217   2   -2.11459985 -3.69059973 -3.90849972 
      218   2   -2.11644985 -6.16176955 -0.41392397 
      219   2   -4.25464969 -2.45642982 -0.41443797 
      220   2   -4.25752969 -7.39892947  3.07755978 
      221   2   -6.39635954 -3.69293973  3.07736978 
      222   1    6.43655954 -6.16152955 -4.78164965 
      223   1    8.57390938 -2.45608982 -4.78262965 
      224   1    8.57623938 -7.39847946 -1.28704991 
      225   1    4.29897969 -7.39975947 -1.28778991 
      226   1    2.16139984 -6.16152955 -4.78164965 
      227   1    0.02404860 -2.45608982 -4.78262965 
      228   1    0.02171450 -7.39847946 -1.28704991 
      229   2    10.71259923 -3.69059973 -3.90849972 
      230   2    10.71439923 -6.16176955 -0.41392297 
      231   2    12.85259907 -2.45642982 -0.41443797 
      232   2    12.85549907 -7.39893947  3.07755978 
      233   2    14.99429892 -3.69293973  3.07736978 
      234   2   -4.25345969  0.01400160 -3.90849972 
      235   2   -6.39446954  1.24798991 -0.41392397 
      236   2   -8.53642938  0.01234260  3.07755978 
      237   1   -2.11500985  1.24886991 -4.78262965 
      238   2    4.29897969 -2.45674982 -7.40183946 
      239   2    2.16103984  1.24767991 -7.40202947 
      240   2    6.43690953  1.24767991 -7.40202947 
      241   1    10.71299923  1.24886991 -4.78262965 
      242   2    12.85139907  0.01400110 -3.90849972 
      243   2    14.99239892  1.24797991 -0.41392297 
      244   2    17.13439876  0.01234200  3.07755978 
      245   1   -4.25533969  4.95258964 -4.78164965 
      246   1   -6.39640954  3.71803973 -1.28704991 
      247   1   -4.25888969  7.42289946 -1.28778991 
      248   1   -2.11775985  8.65498937 -4.78164965 
      249   1    2.15990984  8.65326938 -4.78262965 
      250   1   -2.11914985  11.12649920 -1.28704991 
      251   2    0.02187910  4.95139964 -7.40183946 
      252   2    4.29897969  4.95068964 -7.40202947 
      253   1    6.43803953  8.65326938 -4.78262965 
      254   2    8.57607938  4.95139964 -7.40183946 
      255   1    12.85329907  4.95258964 -4.78164965 
      256   1    14.99439892  3.71803973 -1.28704991 
      257   1    12.85679907  7.42289946 -1.28778991 
      258   1    10.71569923  8.65498937 -4.78164965 
      259   1    10.71709923  11.12649920 -1.28704991 
      260   2    2.16011984  11.12269920 -3.90849972 
      261   2    4.29897969  12.35889911 -0.41443797 
      262   2    0.02095490  12.35979911 -0.41392297 
      263   2    0.02007560  14.83259893  3.07755978 
      264   2    4.29897969  14.83189893  3.07736978 
      265   2    6.43782953  11.12269920 -3.90849972 
      266   2    8.57699938  12.35979911 -0.41392297 
      267   2    8.57787938  14.83259893  3.07755978 
      268   1   -4.25752969 -7.39893947  5.69768959 
      269   1   -2.11644985 -6.16176955  9.18916934 
      270   1   -6.39635954 -3.69293973  5.69787959 
      271   1   -4.25465969 -2.45642982  9.18968934 
      272   1   -2.11459985 -3.69059973  12.68379908 
      273   2    0.02171480 -7.39847946  10.06229927 
      274   2    4.29897969 -7.39975947  10.06299927 
      275   2    2.16139984 -6.16152955  13.55689902 
      276   2    0.02404890 -2.45608982  13.55789902 
      277   2    8.57623938 -7.39847946  10.06229927 
      278   2    6.43655954 -6.16152955  13.55689902 
      279   2    8.57390938 -2.45608982  13.55789902 
      280   2    4.29897969 -9.87017929  6.57006953 
      281   2    0.01969070 -9.86996929  6.56966953 
      282   1    0.01969050 -9.86996929  2.20557984 
      283   1    4.29897969 -9.87017929  2.20517984 
      284   2    8.57826938 -9.86996929  6.56966953 
      285   1    12.85549907 -7.39893947  5.69768959 
      286   1    10.71439923 -6.16176955  9.18917934 
      287   1    14.99429892 -3.69293973  5.69787959 
      288   1    12.85259907 -2.45642982  9.18968934 
      289   1    10.71259923 -3.69059973  12.68379908 
      290   1    8.57826938 -9.86996929  2.20557984 
      291   1   -8.53642938  0.01234220  5.69768959 
      292   1   -6.39446954  1.24798991  9.18916934 
      293   1   -4.25345969  0.01400120  12.68379908 
      294   2   -2.11500985  1.24886991  13.55789902 
      295   2    10.71299923  1.24886991  13.55789902 
      296   1    17.13439876  0.01234190  5.69768959 
      297   1    14.99239892  1.24797991  9.18916934 
      298   1    12.85139907  0.01400100  12.68379908 
      299   2   -6.39640954  3.71803973  10.06229927 
      300   2   -4.25888969  7.42289946  10.06299927 
      301   2   -4.25533969  4.95258964  13.55689902 
      302   2   -2.11914985  11.12649920  10.06229927 
      303   2    2.15990984  8.65326938  13.55789902 
      304   2   -2.11775985  8.65498937  13.55689902 
      305   2   -8.53779939  4.95203964  6.56966953 
      306   2   -6.39833954  8.65811938  6.57006953 
      307   1   -8.53779939  4.95203964  2.20557984 
      308   1   -6.39833954  8.65811938  2.20517984 
      309   2    6.43803953  8.65326938  13.55789902 
      310   2    14.99439892  3.71803973  10.06229927 
      311   2    12.85679907  7.42289946  10.06299927 
      312   2    12.85329907  4.95258964  13.55689902 
      313   2    10.71709923  11.12649920  10.06229927 
      314   2    10.71569923  8.65498937  13.55689902 
      315   2    17.13579877  4.95203964  6.56966953 
      316   2    14.99629892  8.65811938  6.57006953 
      317   1    17.13579877  4.95203964  2.20557984 
      318   1    14.99629892  8.65811938  2.20517984 
      319   2   -4.25850969  12.36399911  6.56966953 
      320   1    4.29897969  14.83189893  5.69787959 
      321   1    4.29897969  12.35889911  9.18968934 
      322   1    0.02007530  14.83259893  5.69768959 
      323   1    0.02095400  12.35979911  9.18917934 
      324   1    2.16011984  11.12269920  12.68379908 
      325   1   -4.25850969  12.36399911  2.20557984 
      326   1    8.57787938  14.83259893  5.69768959 
      327   1    8.57699938  12.35979911  9.18917934 
      328   1    6.43782953  11.12269920  12.68379908 
      329   2    12.85649907  12.36399911  6.56966953 
      330   1    12.85649907  12.36399911  2.20557984 
      331   1    4.29897969 -2.45674982  16.17709883 
      332   1    6.43690953  1.24767991  16.17729883 
      333   1    2.16103984  1.24767991  16.17729883 
      334   1    4.29897969  4.95068964  16.17729883 
      335   1    0.02187840  4.95139964  16.17709883 
      336   1    8.57607938  4.95139964  16.17709883 
      337   2    6.43685954 -6.16277956 -7.40144947 
      338   2    4.29897969 -7.39838947 -3.90768972 
      339   2    8.57503938 -7.39648947 -3.90675972 
      340   2    8.57402938 -2.45569982 -7.40272947 
      341   2    8.57732938 -9.86923929 -0.41372397 
      342   2    4.29897969 -9.87063929 -0.41463597 
      343   2    2.16109984 -6.16277956 -7.40144947 
      344   2    0.02291210 -7.39648947 -3.90675972 
      345   2    0.02392280 -2.45569982 -7.40272947 
      346   2    0.02062220 -9.86923929 -0.41372397 
      347   2   -2.11472985  1.24856991 -7.40272947 
      348   1    6.43664953 -3.69287973 -8.27639940 
      349   1    2.16130985 -3.69286973 -8.27639940 
      350   1    4.29897969  0.01278650 -8.27676940 
      351   1    0.02330820  0.01345690 -8.27697940 
      352   1    2.16055984  3.71662973 -8.27676940 
      353   1    8.57464938  0.01345680 -8.27697940 
      354   1    6.43738953  3.71662973 -8.27676940 
      355   2    10.71269923  1.24856991 -7.40272947 
      356   2   -4.25656969  4.95295964 -7.40144947 
      357   2   -6.39408954  3.71808973 -3.90675972 
      358   2   -4.25770969  7.42221947 -3.90768972 
      359   2   -8.53669939  4.95247964 -0.41372397 
      360   2   -6.39873954  8.65834937 -0.41463597 
      361   2   -2.11868984  8.65586937 -7.40144947 
      362   2   -2.11801985  11.12439920 -3.90675972 
      363   2    2.16031985  8.65317938 -7.40272947 
      364   2   -4.25834969  12.36279911 -0.41372397 
      365   1   -2.11746985  3.71817973 -8.27639940 
      366   1    0.02020180  7.42073946 -8.27639940 
      367   1    4.29897969  7.41912946 -8.27697940 
      368   2    6.43762954  8.65317938 -7.40272947 
      369   1    10.71539923  3.71817973 -8.27639940 
      370   1    8.57774938  7.42073946 -8.27639940 
      371   2    12.85449907  4.95295964 -7.40144947 
      372   2    14.99199892  3.71808973 -3.90675972 
      373   2    12.85569907  7.42221947 -3.90768972 
      374   2    17.13469876  4.95247964 -0.41372397 
      375   2    14.99669892  8.65834937 -0.41463597 
      376   2    10.71659923  8.65586937 -7.40144947 
      377   2    10.71599922  11.12439920 -3.90675972 
      378   2    12.85629907  12.36279911 -0.41372397 
      379   1    0.02062200 -9.86923929  9.18897933 
      380   1    0.02291150 -7.39648947  12.68199909 
      381   1    4.29897969 -9.87063929  9.18988934 
      382   1    4.29897969 -7.39838947  12.68289908 
      383   1    2.16109984 -6.16277956  16.17669883 
      384   1    0.02392230 -2.45569982  16.17799883 
      385   1    8.57732938 -9.86923929  9.18897933 
      386   1    8.57503938 -7.39648947  12.68199909 
      387   1    6.43685954 -6.16277956  16.17669883 
      388   1    8.57402938 -2.45569982  16.17799883 
      389   1    6.43872953 -11.10519920  5.69748959 
      390   1    2.15921984 -11.10519920  5.69748959 
      391   1   -2.12033985 -11.10539920  5.69751959 
      392   2   -2.12033985 -11.10539920  3.07772978 
      393   2    2.15922985 -11.10519920  3.07775978 
      394   2    6.43872953 -11.10519920  3.07775978 
      395   1    10.71829922 -11.10539920  5.69751959 
      396   2    10.71829922 -11.10539920  3.07772978 
      397   1   -2.11472985  1.24856991  16.17799883 
      398   1    10.71269923  1.24856991  16.17799883 
      399   1   -8.53669939  4.95247964  9.18897933 
      400   1   -6.39408954  3.71808973  12.68199909 
      401   1   -6.39873954  8.65834937  9.18988934 
      402   1   -4.25770969  7.42221947  12.68289908 
      403   1   -4.25656969  4.95295964  16.17669883 
      404   1   -4.25834969  12.36279911  9.18897933 
      405   1   -2.11801985  11.12439920  12.68199909 
      406   1    2.16031985  8.65317938  16.17799883 
      407   1   -2.11868984  8.65586937  16.17669883 
      408   1   -10.67769923  3.71642973  5.69751959 
      409   1   -8.53776938  7.42253946  5.69748959 
      410   1   -6.39801954  11.12869920  5.69748959 
      411   2   -10.67769923  3.71642973  3.07772978 
      412   2   -8.53776938  7.42253946  3.07775978 
      413   2   -6.39801954  11.12869920  3.07775978 
      414   1    6.43762954  8.65317938  16.17799883 
      415   1    17.13469876  4.95247964  9.18897933 
      416   1    14.99199892  3.71808973  12.68199909 
      417   1    14.99669892  8.65834937  9.18988934 
      418   1    12.85569907  7.42221947  12.68289908 
      419   1    12.85449907  4.95295964  16.17669883 
      420   1    12.85629907  12.36279911  9.18897933 
      421   1    10.71599922  11.12439920  12.68199909 
      422   1    10.71659923  8.65586937  16.17669883 
      423   1    19.27569861  3.71642973  5.69751959 
      424   1    17.13569876  7.42253946  5.69748959 
      425   1    14.99599891  11.12869920  5.69748959 
      426   2    19.27569861  3.71642973  3.07772978 
      427   2    17.13569876  7.42253946  3.07775978 
      428   2    14.99599891  11.12869920  3.07775978 
      429   1   -4.25840969  14.83499893  5.69751959 
      430   2   -4.25840969  14.83499893  3.07772978 
      431   1    12.85639907  14.83499893  5.69751959 
      432   2    12.85639907  14.83499893  3.07772978 
      433   2    2.16130985 -3.69287973  17.05169877 
      434   2    6.43664953 -3.69287973  17.05169877 
      435   2    4.29897969  0.01278650  17.05199877 
      436   2    8.57464938  0.01345680  17.05219877 
      437   2    6.43738953  3.71662973  17.05199877 
      438   2    0.02330830  0.01345690  17.05219877 
      439   2    2.16055984  3.71662973  17.05199877 
      440   2    4.29897969  7.41912946  17.05219877 
      441   2   -2.11746985  3.71817973  17.05169877 
      442   2    0.02020170  7.42073946  17.05169877 
      443   2    10.71539923  3.71817973  17.05169877 
      444   2    8.57774938  7.42073946  17.05169877 
