LAMMPS configuration data file

  186 atoms

  2 atom types

  -30.697409  30.697409  xlo xhi
  -29.264354  29.264354  ylo yhi
  -29.170274  29.170274  zlo zhi

 Masses

  1   112.411
  2   78.960

 Atoms

        1   1    0.02132180 -2.45742982  2.20477984 
        2   1    4.29897969 -2.45728982  2.20484984 
        3   2    4.29897969 -2.45825982 -0.41453597 
        4   1    8.57662938 -2.45742982  2.20477984 
        5   1   -2.11753985  1.24717991  2.20477984 
        6   1    2.16068985  1.24747991  2.20565984 
        7   2    2.16069984  1.24747991 -0.41351297 
        8   1    6.43725954  1.24747991  2.20565984 
        9   1    4.29897969  0.01190430 -1.28797991 
       10   2    6.43725954  1.24747991 -0.41351297 
       11   1    10.71549923  1.24717991  2.20477984 
       12   1    0.02140800  4.95166964  2.20484984 
       13   2    0.02057790  4.95214964 -0.41453497 
       14   1    4.29897969  4.95108964  2.20565984 
       15   1    2.15979984  3.71706973 -1.28797991 
       16   2    4.29897969  4.95108964 -0.41351297 
       17   1    8.57654938  4.95166964  2.20484984 
       18   1    6.43815953  3.71706973 -1.28797991 
       19   2    8.57737938  4.95214964 -0.41453497 
       20   1    2.16011984  8.65629937  2.20477984 
       21   1    6.43783954  8.65629937  2.20477984 
       22   2    0.02132380 -2.45742982  6.57046953 
       23   1    4.29897969 -2.45825982  9.18978934 
       24   1    2.16023984 -3.69381973  5.69725959 
       25   2    4.29897969 -2.45728982  6.57039953 
       26   2    2.16023984 -3.69380973  3.07798978 
       27   1    6.43771953 -3.69381973  5.69725959 
       28   2    8.57662938 -2.45742982  6.57046953 
       29   2    6.43771953 -3.69380973  3.07798978 
       30   2   -2.11752985  1.24717991  6.57046953 
       31   1    2.16068985  1.24747991  9.18875933 
       32   1    0.02201560  0.01271100  5.69704959 
       33   2    2.16069984  1.24747991  6.56958953 
       34   2    0.02201870  0.01271210  3.07819978 
       35   1    6.43725954  1.24747991  9.18875933 
       36   1    4.29897969  0.01285270  5.69650959 
       37   2    6.43725954  1.24747991  6.56958953 
       38   2    4.29897969  0.01285370  3.07873978 
       39   1    8.57593938  0.01271110  5.69704959 
       40   2    10.71549923  1.24717991  6.57046953 
       41   2    8.57593938  0.01271160  3.07819978 
       42   1    0.02057510  4.95214964  9.18978934 
       43   1   -2.11881985  3.71772973  5.69725959 
       44   2    0.02141130  4.95166964  6.57039953 
       45   2   -2.11881985  3.71772973  3.07798978 
       46   1    4.29897969  4.95108964  9.18875933 
       47   1    2.16061985  3.71659973  5.69650959 
       48   2    4.29897969  4.95108964  6.56958953 
       49   2    2.16061985  3.71659973  3.07873978 
       50   1    8.57737938  4.95214964  9.18978934 
       51   1    6.43733954  3.71659973  5.69650959 
       52   2    8.57654938  4.95166964  6.57039953 
       53   2    6.43733954  3.71659973  3.07873978 
       54   1    10.71679922  3.71772973  5.69725959 
       55   2    10.71679922  3.71772973  3.07798978 
       56   1    0.01992030  7.42212946  5.69725959 
       57   2    2.16011984  8.65629937  6.57046953 
       58   2    0.01992310  7.42213946  3.07798978 
       59   1    4.29897969  7.42062946  5.69704959 
       60   2    6.43783954  8.65629937  6.57046953 
       61   2    4.29897969  7.42062946  3.07820978 
       62   1    8.57802938  7.42212946  5.69725959 
       63   2    8.57803938  7.42212946  3.07798978 
       64   2    4.29897969  0.01190470  10.06319927 
       65   2    2.15979984  3.71706973  10.06319927 
       66   2    6.43815953  3.71706973  10.06319927 
       67   2    0.02322350 -2.45699982 -0.41480697 
       68   2   -2.11837985 -3.69363973  3.07787978 
       69   1    6.43719953 -3.69346973 -1.28886990 
       70   1    2.16075985 -3.69346973 -1.28886990 
       71   2    8.57472938 -2.45699982 -0.41480697 
       72   2    10.71629923 -3.69363973  3.07787978 
       73   2   -2.11621985  1.24860991 -0.41480697 
       74   2   -4.25797969  0.01225100  3.07787978 
       75   1    0.02237750  0.01292000 -1.28843991 
       76   2    4.29897969  0.01233510 -3.90796972 
       77   1    8.57557938  0.01292010 -1.28843991 
       78   2    10.71419923  1.24860991 -0.41480697 
       79   2    12.85589907  0.01225020  3.07787978 
       80   1   -2.11825985  3.71800973 -1.28886990 
       81   1    0.01995810  7.42150946 -1.28886990 
       82   2    2.16016984  3.71685973 -3.90796972 
       83   1    4.29897969  7.42020947 -1.28843991 
       84   2    6.43778953  3.71685973 -3.90796972 
       85   1    10.71619923  3.71800973 -1.28886990 
       86   1    8.57799938  7.42150946 -1.28886990 
       87   2    2.15953984  8.65443937 -0.41480697 
       88   2    2.15937985  11.12739920  3.07787978 
       89   2    6.43841954  8.65443937 -0.41480697 
       90   2    6.43857954  11.12739920  3.07787978 
       91   1   -2.11837985 -3.69363973  5.69736959 
       92   1    0.02322180 -2.45700982  9.19005934 
       93   2    2.16075985 -3.69346973  10.06409927 
       94   2    6.43719953 -3.69346973  10.06409927 
       95   2    2.15945984 -6.16444955  6.57046953 
       96   1    2.15945984 -6.16444955  2.20477984 
       97   2    6.43848954 -6.16444955  6.57046953 
       98   1    10.71629923 -3.69363973  5.69736959 
       99   1    8.57472938 -2.45700982  9.19005934 
      100   1    6.43848954 -6.16444955  2.20477984 
      101   1   -4.25797969  0.01224990  5.69736959 
      102   1   -2.11621985  1.24860991  9.19005934 
      103   2    0.02237950  0.01292060  10.06369927 
      104   2    8.57557938  0.01292030  10.06369927 
      105   1    12.85589907  0.01225000  5.69736959 
      106   1    10.71419923  1.24860991  9.19005934 
      107   2   -2.11825985  3.71800973  10.06409927 
      108   2    0.01995980  7.42150946  10.06409927 
      109   2   -4.25883969  4.95237964  6.57046953 
      110   1   -4.25883969  4.95237964  2.20477984 
      111   2    4.29897969  7.42020947  10.06369927 
      112   2    10.71619923  3.71800973  10.06409927 
      113   2    8.57799938  7.42150946  10.06409927 
      114   2    12.85679907  4.95237964  6.57046953 
      115   1    12.85679907  4.95237964  2.20477984 
      116   2   -2.11931985  8.65812937  6.57046953 
      117   1    2.15937985  11.12739920  5.69736959 
      118   1    2.15953984  8.65443937  9.19005934 
      119   1   -2.11932985  8.65812937  2.20477984 
      120   1    6.43857954  11.12739920  5.69736959 
      121   1    6.43841954  8.65443937  9.19005934 
      122   2    10.71729923  8.65812937  6.57046953 
      123   1    10.71729923  8.65811938  2.20477984 
      124   1    4.29897969  0.01233450  12.68319909 
      125   1    2.16016984  3.71685973  12.68319909 
      126   1    6.43777953  3.71685973  12.68319909 
      127   2    6.43695954 -3.69229973 -3.90825972 
      128   2    6.43766953 -6.16446955 -0.41507197 
      129   2    2.16099984 -3.69229973 -3.90825972 
      130   2    2.16027984 -6.16446955 -0.41507197 
      131   2    0.02319610  0.01339200 -3.90831972 
      132   1    4.29897969 -2.45695982 -4.78264966 
      133   1    2.16130985  1.24782991 -4.78206966 
      134   1    6.43664953  1.24782991 -4.78206966 
      135   2    8.57475938  0.01339170 -3.90831972 
      136   2   -2.11712985  3.71762973 -3.90825972 
      137   2   -4.25844969  4.95309964 -0.41507197 
      138   2    0.02084860  7.42071947 -3.90825972 
      139   2   -2.11974984  8.65741938 -0.41507197 
      140   1    0.02170030  4.95149964 -4.78264966 
      141   1    4.29897969  4.95037964 -4.78206966 
      142   2    4.29897969  7.41926947 -3.90831972 
      143   1    8.57624938  4.95149964 -4.78264966 
      144   2    10.71509923  3.71762973 -3.90825972 
      145   2    12.85639907  4.95309964 -0.41507197 
      146   2    8.57710938  7.42071947 -3.90825972 
      147   2    10.71769923  8.65741938 -0.41507197 
      148   1    2.16027984 -6.16446955  9.19031934 
      149   1    2.16099984 -3.69230973  12.68349909 
      150   1    6.43766953 -6.16446955  9.19031934 
      151   1    6.43694953 -3.69230973  12.68349909 
      152   1    4.29897969 -7.39960946  5.69740959 
      153   1    0.01922560 -7.39935947  5.69737959 
      154   2    0.01922660 -7.39935947  3.07787978 
      155   2    4.29897969 -7.39960946  3.07783978 
      156   1    8.57872938 -7.39935947  5.69737959 
      157   2    8.57872938 -7.39935947  3.07787978 
      158   1    0.02319440  0.01339130  12.68359909 
      159   1    8.57475938  0.01339140  12.68359909 
      160   1   -4.25844969  4.95309964  9.19031934 
      161   1   -2.11712985  3.71762973  12.68349909 
      162   1   -2.11974984  8.65741938  9.19031934 
      163   1    0.02084720  7.42071947  12.68349909 
      164   1   -6.39841954  3.71632973  5.69737959 
      165   1   -4.25875969  7.42282946  5.69740959 
      166   2   -6.39841954  3.71632973  3.07787978 
      167   2   -4.25875969  7.42282946  3.07783978 
      168   1    4.29897969  7.41926947  12.68359909 
      169   1    12.85639907  4.95309964  9.19031934 
      170   1    10.71509923  3.71762973  12.68349909 
      171   1    10.71769923  8.65741938  9.19031934 
      172   1    8.57710938  7.42071947  12.68349909 
      173   1    14.99639892  3.71632973  5.69737959 
      174   1    12.85669907  7.42282946  5.69740959 
      175   2    14.99639892  3.71632973  3.07787978 
      176   2    12.85669907  7.42282946  3.07783978 
      177   1   -2.11866985  11.12909920  5.69737959 
      178   2   -2.11866985  11.12909920  3.07787978 
      179   1    10.71659923  11.12909920  5.69737959 
      180   2    10.71659923  11.12909920  3.07787978 
      181   2    4.29897969 -2.45695982  13.55789902 
      182   2    6.43664953  1.24782991  13.55729902 
      183   2    2.16130985  1.24782991  13.55729902 
      184   2    4.29897969  4.95037964  13.55729902 
      185   2    0.02170150  4.95149964  13.55789902 
      186   2    8.57624938  4.95149964  13.55789902 
