# Time    F_t_Re (QM_E17)      F_t_Im (QM_E17)       F_t_Re_erf       F_t_Im_erf  
0.00000000000000000000        1.000000        0.000000         0.463623         -0.000314     
0.00000000000000100000        0.999532        -0.012628         0.463156         -0.012942     
0.00000000000000200000        0.998132        -0.025207         0.461756         -0.025520     
0.00000000000000300000        0.995806        -0.037685         0.459430         -0.037999     
0.00000000000000400000        0.992566        -0.050016         0.456189         -0.050330     
0.00000000000000500000        0.988428        -0.062151         0.452051         -0.062465     
0.00000000000000600000        0.983411        -0.074044         0.447035         -0.074358     
0.00000000000000700000        0.977542        -0.085651         0.441165         -0.085965     
0.00000000000000800000        0.970847        -0.096931         0.434471         -0.097245     
0.00000000000000900000        0.963359        -0.107844         0.426983         -0.108157     
0.00000000000001000000        0.955113        -0.118353         0.418737         -0.118667     
0.00000000000001100000        0.946148        -0.128426         0.409771         -0.128740     
0.00000000000001200000        0.936503        -0.138033         0.400126         -0.138347     
0.00000000000001300000        0.926221        -0.147146         0.389845         -0.147460     
0.00000000000001400000        0.915349        -0.155742         0.378972         -0.156056     
0.00000000000001500000        0.903931        -0.163802         0.367555         -0.164116     
0.00000000000001600000        0.892016        -0.171310         0.355639         -0.171624     
0.00000000000001700000        0.879651        -0.178252         0.343275         -0.178566     
0.00000000000001800000        0.866886        -0.184621         0.330509         -0.184935     
0.00000000000001900000        0.853768        -0.190411         0.317391         -0.190725     
0.00000000000002000000        0.840345        -0.195619         0.303969         -0.195933     
0.00000000000002100000        0.826666        -0.200247         0.290290         -0.200561     
0.00000000000002200000        0.812778        -0.204299         0.276401         -0.204613     
0.00000000000002300000        0.798724        -0.207782         0.262347         -0.208096     
0.00000000000002400000        0.784550        -0.210706         0.248173         -0.211020     
0.00000000000002500000        0.770298        -0.213082         0.233921         -0.213396     
0.00000000000002600000        0.756008        -0.214926         0.219631         -0.215240     
0.00000000000002700000        0.741719        -0.216253         0.205342         -0.216567     
0.00000000000002800000        0.727467        -0.217082         0.191091         -0.217396     
0.00000000000002900000        0.713287        -0.217433         0.176911         -0.217746     
0.00000000000003000000        0.699211        -0.217325         0.162834         -0.217639     
0.00000000000003100000        0.685267        -0.216781         0.148891         -0.217095     
0.00000000000003200000        0.671484        -0.215825         0.135108         -0.216139     
0.00000000000003300000        0.657886        -0.214478         0.121510         -0.214792     
0.00000000000003400000        0.644497        -0.212764         0.108120         -0.213078     
0.00000000000003500000        0.631336        -0.210708         0.094959         -0.211022     
0.00000000000003600000        0.618421        -0.208334         0.082045         -0.208648     
0.00000000000003700000        0.605770        -0.205664         0.069393         -0.205978     
0.00000000000003800000        0.593395        -0.202722         0.057018         -0.203036     
0.00000000000003900000        0.581308        -0.199532         0.044931         -0.199846     
0.00000000000004000000        0.569520        -0.196115         0.033144         -0.196429     
0.00000000000004100000        0.558040        -0.192493         0.021663         -0.192807     
0.00000000000004200000        0.546873        -0.188687         0.010497         -0.189001     
0.00000000000004300000        0.536026        -0.184718         -0.000351         -0.185031     
0.00000000000004400000        0.525501        -0.180603         -0.010875         -0.180917     
0.00000000000004500000        0.515302        -0.176363         -0.021074         -0.176677     
0.00000000000004600000        0.505430        -0.172014         -0.030946         -0.172328     
0.00000000000004700000        0.495885        -0.167572         -0.040492         -0.167886     
0.00000000000004800000        0.486666        -0.163053         -0.049711         -0.163366     
0.00000000000004900000        0.477771        -0.158470         -0.058605         -0.158784     
0.00000000000005000000        0.469199        -0.153839         -0.067178         -0.154153     
0.00000000000005100000        0.460946        -0.149170         -0.075431         -0.149484     
0.00000000000005200000        0.453009        -0.144475         -0.083368         -0.144789     
0.00000000000005300000        0.445383        -0.139765         -0.090994         -0.140079     
0.00000000000005400000        0.438064        -0.135049         -0.098313         -0.135363     
0.00000000000005500000        0.431047        -0.130336         -0.105329         -0.130650     
0.00000000000005600000        0.424328        -0.125633         -0.112049         -0.125947     
0.00000000000005700000        0.417899        -0.120948         -0.118477         -0.121262     
0.00000000000005800000        0.411757        -0.116287         -0.124619         -0.116601     
0.00000000000005900000        0.405896        -0.111655         -0.130481         -0.111969     
0.00000000000006000000        0.400309        -0.107057         -0.136068         -0.107371     
0.00000000000006100000        0.394991        -0.102497         -0.141385         -0.102811     
0.00000000000006200000        0.389937        -0.097979         -0.146440         -0.098293     
0.00000000000006300000        0.385140        -0.093506         -0.151236         -0.093820     
0.00000000000006400000        0.380596        -0.089080         -0.155781         -0.089394     
0.00000000000006500000        0.376298        -0.084703         -0.160078         -0.085017     
0.00000000000006600000        0.372242        -0.080377         -0.164135         -0.080691     
0.00000000000006700000        0.368422        -0.076102         -0.167955         -0.076416     
0.00000000000006800000        0.364833        -0.071881         -0.171544         -0.072195     
0.00000000000006900000        0.361470        -0.067712         -0.174906         -0.068026     
0.00000000000007000000        0.358329        -0.063597         -0.178047         -0.063911     
0.00000000000007100000        0.355406        -0.059535         -0.180971         -0.059849     
0.00000000000007200000        0.352695        -0.055526         -0.183682         -0.055840     
0.00000000000007300000        0.350193        -0.051570         -0.186184         -0.051884     
0.00000000000007400000        0.347896        -0.047665         -0.188481         -0.047979     
0.00000000000007500000        0.345800        -0.043811         -0.190576         -0.044125     
0.00000000000007600000        0.343902        -0.040007         -0.192474         -0.040321     
0.00000000000007700000        0.342199        -0.036251         -0.194178         -0.036565     
0.00000000000007800000        0.340687        -0.032544         -0.195689         -0.032858     
0.00000000000007900000        0.339364        -0.028883         -0.197013         -0.029197     
0.00000000000008000000        0.338227        -0.025267         -0.198150         -0.025581     
0.00000000000008100000        0.337273        -0.021695         -0.199104         -0.022009     
0.00000000000008200000        0.336500        -0.018167         -0.199876         -0.018481     
0.00000000000008300000        0.335907        -0.014680         -0.200469         -0.014994     
0.00000000000008400000        0.335491        -0.011234         -0.200886         -0.011548     
0.00000000000008500000        0.335250        -0.007828         -0.201126         -0.008142     
0.00000000000008600000        0.335183        -0.004460         -0.201193         -0.004774     
0.00000000000008700000        0.335289        -0.001130         -0.201088         -0.001444     
0.00000000000008800000        0.335565        0.002163         -0.200812         0.001849     
0.00000000000008900000        0.336011        0.005420         -0.200366         0.005106     
0.00000000000009000000        0.336626        0.008640         -0.199751         0.008326     
0.00000000000009100000        0.337408        0.011826         -0.198968         0.011512     
0.00000000000009200000        0.338357        0.014976         -0.198019         0.014662     
0.00000000000009300000        0.339472        0.018090         -0.196904         0.017776     
0.00000000000009400000        0.340752        0.021170         -0.195624         0.020856     
0.00000000000009500000        0.342197        0.024213         -0.194180         0.023900     
0.00000000000009600000        0.343805        0.027221         -0.192572         0.026907     
0.00000000000009700000        0.345576        0.030191         -0.190801         0.029877     
0.00000000000009800000        0.347509        0.033123         -0.188868         0.032809     
0.00000000000009900000        0.349603        0.036016         -0.186773         0.035703     
0.00000000000010000000        0.351859        0.038869         -0.184518         0.038555     
0.00000000000010100000        0.354274        0.041679         -0.182102         0.041365     
0.00000000000010200000        0.356848        0.044445         -0.179528         0.044131     
0.00000000000010300000        0.359581        0.047164         -0.176796         0.046850     
0.00000000000010400000        0.362470        0.049835         -0.173907         0.049521     
0.00000000000010500000        0.365514        0.052454         -0.170862         0.052140     
0.00000000000010600000        0.368713        0.055018         -0.167664         0.054704     
0.00000000000010700000        0.372064        0.057525         -0.164313         0.057212     
0.00000000000010800000        0.375566        0.059972         -0.160811         0.059658     
0.00000000000010900000        0.379216        0.062353         -0.157161         0.062039     
0.00000000000011000000        0.383011        0.064666         -0.153365         0.064352     
0.00000000000011100000        0.386951        0.066907         -0.149426         0.066593     
0.00000000000011200000        0.391030        0.069071         -0.145346         0.068757     
0.00000000000011300000        0.395247        0.071154         -0.141130         0.070840     
0.00000000000011400000        0.399597        0.073151         -0.136780         0.072837     
0.00000000000011500000        0.404076        0.075058         -0.132300         0.074744     
0.00000000000011600000        0.408680        0.076870         -0.127696         0.076556     
0.00000000000011700000        0.413404        0.078581         -0.122972         0.078267     
0.00000000000011800000        0.418243        0.080187         -0.118134         0.079873     
0.00000000000011900000        0.423190        0.081683         -0.113186         0.081369     
0.00000000000012000000        0.428240        0.083064         -0.108136         0.082750     
0.00000000000012100000        0.433387        0.084324         -0.102990         0.084010     
0.00000000000012200000        0.438622        0.085460         -0.097755         0.085146     
0.00000000000012300000        0.443938        0.086465         -0.092439         0.086151     
0.00000000000012400000        0.449328        0.087335         -0.087049         0.087022     
0.00000000000012500000        0.454782        0.088067         -0.081595         0.087753     
0.00000000000012600000        0.460292        0.088655         -0.076085         0.088341     
0.00000000000012700000        0.465848        0.089096         -0.070529         0.088782     
0.00000000000012800000        0.471440        0.089386         -0.064937         0.089072     
0.00000000000012900000        0.477058        0.089521         -0.059318         0.089207     
0.00000000000013000000        0.482692        0.089500         -0.053684         0.089186     
0.00000000000013100000        0.488331        0.089318         -0.048046         0.089005     
0.00000000000013200000        0.493962        0.088976         -0.042415         0.088662     
0.00000000000013300000        0.499575        0.088470         -0.036802         0.088156     
0.00000000000013400000        0.505158        0.087801         -0.031219         0.087487     
0.00000000000013500000        0.510699        0.086968         -0.025678         0.086654     
0.00000000000013600000        0.516185        0.085971         -0.020192         0.085657     
0.00000000000013700000        0.521605        0.084811         -0.014771         0.084497     
0.00000000000013800000        0.526947        0.083490         -0.009430         0.083177     
0.00000000000013900000        0.532198        0.082011         -0.004179         0.081697     
0.00000000000014000000        0.537346        0.080376         0.000970         0.080062     
0.00000000000014100000        0.542380        0.078589         0.006004         0.078275     
0.00000000000014200000        0.547288        0.076654         0.010912         0.076340     
0.00000000000014300000        0.552059        0.074576         0.015683         0.074262     
0.00000000000014400000        0.556682        0.072362         0.020306         0.072048     
0.00000000000014500000        0.561147        0.070016         0.024770         0.069703     
0.00000000000014600000        0.565443        0.067548         0.029067         0.067234     
0.00000000000014700000        0.569562        0.064963         0.033185         0.064649     
0.00000000000014800000        0.573494        0.062271         0.037117         0.061957     
0.00000000000014900000        0.577231        0.059479         0.040855         0.059165     
0.00000000000015000000        0.580767        0.056597         0.044390         0.056283     
0.00000000000015100000        0.584094        0.053635         0.047718         0.053321     
0.00000000000015200000        0.587207        0.050601         0.050831         0.050287     
0.00000000000015300000        0.590101        0.047508         0.053724         0.047194     
0.00000000000015400000        0.592771        0.044364         0.056395         0.044050     
0.00000000000015500000        0.595215        0.041181         0.058838         0.040867     
0.00000000000015600000        0.597430        0.037969         0.061053         0.037655     
0.00000000000015700000        0.599414        0.034739         0.063038         0.034425     
0.00000000000015800000        0.601168        0.031503         0.064791         0.031189     
0.00000000000015900000        0.602691        0.028270         0.066315         0.027956     
0.00000000000016000000        0.603985        0.025051         0.067608         0.024738     
0.00000000000016100000        0.605051        0.021858         0.068675         0.021544     
0.00000000000016200000        0.605894        0.018700         0.069517         0.018386     
0.00000000000016300000        0.606516        0.015587         0.070139         0.015273     
0.00000000000016400000        0.606921        0.012528         0.070545         0.012214     
0.00000000000016500000        0.607117        0.009534         0.070740         0.009220     
0.00000000000016600000        0.607107        0.006612         0.070730         0.006298     
0.00000000000016700000        0.606899        0.003771         0.070522         0.003457     
0.00000000000016800000        0.606500        0.001019         0.070124         0.000705     
0.00000000000016900000        0.605918        -0.001637         0.069541         -0.001951     
0.00000000000017000000        0.605161        -0.004190         0.068784         -0.004504     
0.00000000000017100000        0.604238        -0.006634         0.067861         -0.006948     
0.00000000000017200000        0.603157        -0.008963         0.066780         -0.009277     
0.00000000000017300000        0.601928        -0.011173         0.065552         -0.011487     
0.00000000000017400000        0.600562        -0.013259         0.064185         -0.013573     
0.00000000000017500000        0.599067        -0.015218         0.062690         -0.015531     
0.00000000000017600000        0.597453        -0.017045         0.061077         -0.017359     
0.00000000000017700000        0.595732        -0.018739         0.059356         -0.019053     
0.00000000000017800000        0.593913        -0.020297         0.057536         -0.020611     
0.00000000000017900000        0.592006        -0.021718         0.055630         -0.022032     
0.00000000000018000000        0.590022        -0.023001         0.053645         -0.023315     
0.00000000000018100000        0.587970        -0.024146         0.051594         -0.024460     
0.00000000000018200000        0.585862        -0.025152         0.049485         -0.025466     
0.00000000000018300000        0.583706        -0.026020         0.047329         -0.026334     
0.00000000000018400000        0.581512        -0.026752         0.045135         -0.027066     
0.00000000000018500000        0.579290        -0.027348         0.042914         -0.027662     
0.00000000000018600000        0.577050        -0.027810         0.040673         -0.028124     
0.00000000000018700000        0.574800        -0.028140         0.038423         -0.028454     
0.00000000000018800000        0.572549        -0.028341         0.036172         -0.028655     
0.00000000000018900000        0.570305        -0.028415         0.033929         -0.028729     
0.00000000000019000000        0.568077        -0.028366         0.031701         -0.028680     
0.00000000000019100000        0.565873        -0.028196         0.029497         -0.028510     
0.00000000000019200000        0.563700        -0.027909         0.027324         -0.028223     
0.00000000000019300000        0.561565        -0.027509         0.025189         -0.027823     
0.00000000000019400000        0.559476        -0.026999         0.023099         -0.027313     
0.00000000000019500000        0.557438        -0.026384         0.021062         -0.026697     
0.00000000000019600000        0.555459        -0.025666         0.019082         -0.025980     
0.00000000000019700000        0.553543        -0.024851         0.017167         -0.025165     
0.00000000000019800000        0.551697        -0.023943         0.015321         -0.024257     
0.00000000000019900000        0.549926        -0.022945         0.013550         -0.023259     
0.00000000000020000000        0.548235        -0.021863         0.011858         -0.022177     
0.00000000000020100000        0.546628        -0.020699         0.010252         -0.021013     
0.00000000000020200000        0.545110        -0.019460         0.008734         -0.019774     
0.00000000000020300000        0.543685        -0.018148         0.007308         -0.018462     
0.00000000000020400000        0.542356        -0.016769         0.005980         -0.017083     
0.00000000000020500000        0.541128        -0.015326         0.004751         -0.015640     
0.00000000000020600000        0.540003        -0.013824         0.003626         -0.014138     
0.00000000000020700000        0.538984        -0.012267         0.002608         -0.012581     
0.00000000000020800000        0.538075        -0.010660         0.001698         -0.010974     
0.00000000000020900000        0.537277        -0.009006         0.000900         -0.009320     
0.00000000000021000000        0.536592        -0.007309         0.000216         -0.007623     
0.00000000000021100000        0.536024        -0.005575         -0.000352         -0.005889     
0.00000000000021200000        0.535574        -0.003806         -0.000803         -0.004120     
0.00000000000021300000        0.535242        -0.002008         -0.001134         -0.002322     
0.00000000000021400000        0.535032        -0.000183         -0.001345         -0.000497     
0.00000000000021500000        0.534943        0.001664         -0.001434         0.001350     
0.00000000000021600000        0.534977        0.003528         -0.001399         0.003214     
0.00000000000021700000        0.535135        0.005407         -0.001242         0.005093     
0.00000000000021800000        0.535417        0.007295         -0.000959         0.006981     
0.00000000000021900000        0.535824        0.009190         -0.000552         0.008876     
0.00000000000022000000        0.536356        0.011086         -0.000020         0.010772     
0.00000000000022100000        0.537014        0.012981         0.000637         0.012667     
0.00000000000022200000        0.537796        0.014869         0.001419         0.014555     
0.00000000000022300000        0.538702        0.016747         0.002326         0.016434     
0.00000000000022400000        0.539733        0.018612         0.003356         0.018298     
0.00000000000022500000        0.540887        0.020458         0.004510         0.020144     
0.00000000000022600000        0.542164        0.022282         0.005787         0.021968     
0.00000000000022700000        0.543561        0.024079         0.007185         0.023766     
0.00000000000022800000        0.545079        0.025846         0.008702         0.025532     
0.00000000000022900000        0.546715        0.027579         0.010339         0.027265     
0.00000000000023000000        0.548468        0.029272         0.012091         0.028958     
0.00000000000023100000        0.550335        0.030921         0.013958         0.030608     
0.00000000000023200000        0.552315        0.032524         0.015938         0.032210     
0.00000000000023300000        0.554404        0.034074         0.018027         0.033760     
0.00000000000023400000        0.556600        0.035567         0.020223         0.035253     
0.00000000000023500000        0.558900        0.037000         0.022524         0.036686     
0.00000000000023600000        0.561301        0.038367         0.024924         0.038053     
0.00000000000023700000        0.563798        0.039664         0.027422         0.039350     
0.00000000000023800000        0.566389        0.040887         0.030013         0.040573     
0.00000000000023900000        0.569069        0.042031         0.032692         0.041717     
0.00000000000024000000        0.571832        0.043091         0.035456         0.042778     
0.00000000000024100000        0.574675        0.044064         0.038299         0.043750     
0.00000000000024200000        0.577593        0.044944         0.041216         0.044631     
0.00000000000024300000        0.580579        0.045728         0.044202         0.045414     
0.00000000000024400000        0.583628        0.046411         0.047251         0.046097     
0.00000000000024500000        0.586734        0.046988         0.050357         0.046674     
0.00000000000024600000        0.589889        0.047456         0.053513         0.047143     
0.00000000000024700000        0.593089        0.047811         0.056712         0.047497     
0.00000000000024800000        0.596324        0.048049         0.059947         0.047735     
0.00000000000024900000        0.599588        0.048166         0.063211         0.047852     
0.00000000000025000000        0.602872        0.048159         0.066496         0.047845     
0.00000000000025100000        0.606169        0.048025         0.069793         0.047711     
0.00000000000025200000        0.609471        0.047760         0.073094         0.047446     
0.00000000000025300000        0.612767        0.047363         0.076391         0.047049     
0.00000000000025400000        0.616050        0.046830         0.079673         0.046516     
0.00000000000025500000        0.619310        0.046161         0.082933         0.045847     
0.00000000000025600000        0.622537        0.045352         0.086160         0.045038     
0.00000000000025700000        0.625722        0.044403         0.089345         0.044089     
0.00000000000025800000        0.628855        0.043314         0.092478         0.043000     
0.00000000000025900000        0.631925        0.042083         0.095549         0.041769     
0.00000000000026000000        0.634923        0.040712         0.098547         0.040398     
0.00000000000026100000        0.637839        0.039200         0.101462         0.038886     
0.00000000000026200000        0.640661        0.037549         0.104285         0.037235     
0.00000000000026300000        0.643380        0.035760         0.107004         0.035446     
0.00000000000026400000        0.645986        0.033835         0.109610         0.033521     
0.00000000000026500000        0.648469        0.031778         0.112092         0.031464     
0.00000000000026600000        0.650817        0.029591         0.114441         0.029278     
0.00000000000026700000        0.653023        0.027279         0.116646         0.026965     
0.00000000000026800000        0.655075        0.024846         0.118699         0.024532     
0.00000000000026900000        0.656966        0.022296         0.120589         0.021982     
0.00000000000027000000        0.658685        0.019636         0.122309         0.019322     
0.00000000000027100000        0.660225        0.016871         0.123849         0.016557     
0.00000000000027200000        0.661578        0.014007         0.125201         0.013694     
0.00000000000027300000        0.662735        0.011053         0.126358         0.010739     
0.00000000000027400000        0.663690        0.008015         0.127313         0.007701     
0.00000000000027500000        0.664436        0.004902         0.128059         0.004588     
0.00000000000027600000        0.664967        0.001721         0.128591         0.001407     
0.00000000000027700000        0.665279        -0.001518         0.128903         -0.001832     
0.00000000000027800000        0.665367        -0.004806         0.128990         -0.005120     
0.00000000000027900000        0.665227        -0.008135         0.128850         -0.008449     
0.00000000000028000000        0.664856        -0.011494         0.128479         -0.011808     
0.00000000000028100000        0.664251        -0.014873         0.127875         -0.015187     
0.00000000000028200000        0.663412        -0.018263         0.127036         -0.018577     
0.00000000000028300000        0.662338        -0.021654         0.125961         -0.021968     
0.00000000000028400000        0.661029        -0.025035         0.124652         -0.025349     
0.00000000000028500000        0.659486        -0.028397         0.123109         -0.028710     
0.00000000000028600000        0.657710        -0.031729         0.121334         -0.032042     
0.00000000000028700000        0.655705        -0.035021         0.119329         -0.035335     
0.00000000000028800000        0.653474        -0.038265         0.117098         -0.038579     
0.00000000000028900000        0.651021        -0.041450         0.114645         -0.041764     
0.00000000000029000000        0.648351        -0.044567         0.111975         -0.044881     
0.00000000000029100000        0.645470        -0.047608         0.109093         -0.047922     
0.00000000000029200000        0.642383        -0.050563         0.106007         -0.050877     
0.00000000000029300000        0.639099        -0.053426         0.102722         -0.053739     
0.00000000000029400000        0.635624        -0.056187         0.099248         -0.056501     
0.00000000000029500000        0.631967        -0.058841         0.095591         -0.059155     
0.00000000000029600000        0.628136        -0.061380         0.091760         -0.061694     
0.00000000000029700000        0.624141        -0.063798         0.087765         -0.064112     
0.00000000000029800000        0.619991        -0.066090         0.083614         -0.066404     
0.00000000000029900000        0.615696        -0.068251         0.079319         -0.068565     
0.00000000000030000000        0.611266        -0.070276         0.074889         -0.070590     
0.00000000000030100000        0.606711        -0.072162         0.070335         -0.072475     
0.00000000000030200000        0.602043        -0.073904         0.065667         -0.074218     
0.00000000000030300000        0.597272        -0.075502         0.060896         -0.075816     
0.00000000000030400000        0.592409        -0.076952         0.056033         -0.077266     
0.00000000000030500000        0.587465        -0.078253         0.051088         -0.078567     
0.00000000000030600000        0.582451        -0.079404         0.046074         -0.079718     
0.00000000000030700000        0.577377        -0.080405         0.041001         -0.080719     
0.00000000000030800000        0.572255        -0.081257         0.035879         -0.081570     
0.00000000000030900000        0.567096        -0.081958         0.030719         -0.082272     
0.00000000000031000000        0.561909        -0.082512         0.025532         -0.082826     
0.00000000000031100000        0.556705        -0.082919         0.020328         -0.083232     
0.00000000000031200000        0.551494        -0.083181         0.015117         -0.083494     