# Time    F_t_Re (QM_E17)      F_t_Im (QM_E17)       F_t_Re_erf       F_t_Im_erf  
0.00000000000000000000        1.000000        0.000000         0.999989         -0.000012     
0.00000000000000010000        0.999967        -0.007460         0.999956         -0.007472     
0.00000000000000020000        0.999868        -0.014919         0.999857         -0.014931     
0.00000000000000030000        0.999703        -0.022377         0.999691         -0.022389     
0.00000000000000040000        0.999471        -0.029833         0.999460         -0.029844     
0.00000000000000050000        0.999174        -0.037286         0.999163         -0.037297     
0.00000000000000060000        0.998811        -0.044735         0.998800         -0.044747     
0.00000000000000070000        0.998382        -0.052181         0.998370         -0.052193     
0.00000000000000080000        0.997887        -0.059622         0.997875         -0.059634     
0.00000000000000090000        0.997326        -0.067058         0.997314         -0.067069     
0.00000000000000100000        0.996699        -0.074487         0.996688         -0.074499     
0.00000000000000110000        0.996007        -0.081910         0.995995         -0.081922     
0.00000000000000120000        0.995249        -0.089325         0.995237         -0.089337     
0.00000000000000130000        0.994425        -0.096733         0.994414         -0.096744     
0.00000000000000140000        0.993536        -0.104131         0.993525         -0.104143     
0.00000000000000150000        0.992582        -0.111520         0.992571         -0.111532     
0.00000000000000160000        0.991562        -0.118900         0.991551         -0.118911     
0.00000000000000170000        0.990478        -0.126268         0.990467         -0.126280     
0.00000000000000180000        0.989328        -0.133625         0.989317         -0.133637     
0.00000000000000190000        0.988114        -0.140970         0.988103         -0.140982     
0.00000000000000200000        0.986835        -0.148303         0.986824         -0.148314     
0.00000000000000210000        0.985491        -0.155622         0.985480         -0.155633     
0.00000000000000220000        0.984083        -0.162927         0.984072         -0.162938     
0.00000000000000230000        0.982611        -0.170217         0.982600         -0.170229     
0.00000000000000240000        0.981075        -0.177492         0.981063         -0.177504     
0.00000000000000250000        0.979475        -0.184751         0.979463         -0.184763     
0.00000000000000260000        0.977811        -0.191994         0.977799         -0.192006     
0.00000000000000270000        0.976083        -0.199219         0.976072         -0.199231     
0.00000000000000280000        0.974293        -0.206427         0.974281         -0.206438     
0.00000000000000290000        0.972439        -0.213615         0.972428         -0.213627     
0.00000000000000300000        0.970522        -0.220785         0.970511         -0.220797     
0.00000000000000310000        0.968543        -0.227935         0.968532         -0.227947     
0.00000000000000320000        0.966502        -0.235065         0.966490         -0.235077     
0.00000000000000330000        0.964398        -0.242173         0.964387         -0.242185     
0.00000000000000340000        0.962232        -0.249260         0.962221         -0.249272     
0.00000000000000350000        0.960005        -0.256325         0.959993         -0.256337     
0.00000000000000360000        0.957716        -0.263367         0.957705         -0.263378     
0.00000000000000370000        0.955366        -0.270385         0.955355         -0.270397     
0.00000000000000380000        0.952955        -0.277379         0.952944         -0.277391     
0.00000000000000390000        0.950483        -0.284348         0.950472         -0.284360     
0.00000000000000400000        0.947952        -0.291292         0.947940         -0.291304     
0.00000000000000410000        0.945360        -0.298211         0.945348         -0.298222     
0.00000000000000420000        0.942708        -0.305102         0.942697         -0.305114     
0.00000000000000430000        0.939997        -0.311967         0.939986         -0.311979     
0.00000000000000440000        0.937227        -0.318804         0.937216         -0.318815     
0.00000000000000450000        0.934398        -0.325612         0.934387         -0.325624     
0.00000000000000460000        0.931511        -0.332392         0.931499         -0.332404     
0.00000000000000470000        0.928565        -0.339142         0.928554         -0.339154     
0.00000000000000480000        0.925562        -0.345863         0.925551         -0.345874     
0.00000000000000490000        0.922501        -0.352552         0.922490         -0.352564     
0.00000000000000500000        0.919383        -0.359211         0.919372         -0.359223     
0.00000000000000510000        0.916208        -0.365838         0.916197         -0.365849     
0.00000000000000520000        0.912977        -0.372432         0.912966         -0.372444     
0.00000000000000530000        0.909690        -0.378994         0.909679         -0.379006     
0.00000000000000540000        0.906348        -0.385523         0.906336         -0.385534     
0.00000000000000550000        0.902950        -0.392017         0.902938         -0.392029     
0.00000000000000560000        0.899497        -0.398478         0.899485         -0.398489     
0.00000000000000570000        0.895989        -0.404903         0.895978         -0.404915     
0.00000000000000580000        0.892428        -0.411293         0.892417         -0.411304     
0.00000000000000590000        0.888813        -0.417646         0.888801         -0.417658     
0.00000000000000600000        0.885144        -0.423964         0.885133         -0.423976     
0.00000000000000610000        0.881423        -0.430244         0.881412         -0.430256     
0.00000000000000620000        0.877649        -0.436487         0.877638         -0.436499     
0.00000000000000630000        0.873824        -0.442692         0.873812         -0.442703     
0.00000000000000640000        0.869946        -0.448858         0.869935         -0.448870     
0.00000000000000650000        0.866018        -0.454985         0.866006         -0.454997     
0.00000000000000660000        0.862038        -0.461073         0.862027         -0.461085     
0.00000000000000670000        0.858009        -0.467121         0.857998         -0.467133     
0.00000000000000680000        0.853930        -0.473128         0.853918         -0.473140     
0.00000000000000690000        0.849801        -0.479095         0.849790         -0.479107     
0.00000000000000700000        0.845623        -0.485020         0.845612         -0.485032     
0.00000000000000710000        0.841398        -0.490903         0.841386         -0.490915     
0.00000000000000720000        0.837124        -0.496745         0.837112         -0.496756     
0.00000000000000730000        0.832802        -0.502543         0.832791         -0.502555     
0.00000000000000740000        0.828434        -0.508298         0.828422         -0.508310     
0.00000000000000750000        0.824019        -0.514010         0.824007         -0.514022     
0.00000000000000760000        0.819558        -0.519678         0.819546         -0.519689     
0.00000000000000770000        0.815051        -0.525301         0.815040         -0.525313     
0.00000000000000780000        0.810500        -0.530879         0.810488         -0.530891     
0.00000000000000790000        0.805903        -0.536413         0.805892         -0.536424     
0.00000000000000800000        0.801263        -0.541900         0.801252         -0.541912     
0.00000000000000810000        0.796580        -0.547342         0.796568         -0.547353     
0.00000000000000820000        0.791853        -0.552737         0.791841         -0.552749     
0.00000000000000830000        0.787084        -0.558085         0.787072         -0.558097     
0.00000000000000840000        0.782272        -0.563386         0.782261         -0.563398     
0.00000000000000850000        0.777420        -0.568640         0.777408         -0.568652     
0.00000000000000860000        0.772526        -0.573846         0.772515         -0.573857     
0.00000000000000870000        0.767592        -0.579003         0.767581         -0.579015     
0.00000000000000880000        0.762618        -0.584112         0.762607         -0.584124     
0.00000000000000890000        0.757605        -0.589172         0.757594         -0.589183     
0.00000000000000900000        0.752553        -0.594182         0.752542         -0.594194     
0.00000000000000910000        0.747463        -0.599143         0.747451         -0.599155     
0.00000000000000920000        0.742335        -0.604054         0.742323         -0.604066     
0.00000000000000930000        0.737170        -0.608915         0.737158         -0.608927     
0.00000000000000940000        0.731968        -0.613725         0.731957         -0.613737     
0.00000000000000950000        0.726730        -0.618484         0.726719         -0.618496     
0.00000000000000960000        0.721457        -0.623192         0.721446         -0.623204     
0.00000000000000970000        0.716149        -0.627849         0.716137         -0.627861     
0.00000000000000980000        0.710806        -0.632454         0.710795         -0.632465     
0.00000000000000990000        0.705430        -0.637007         0.705419         -0.637018     
0.00000000000001000000        0.700020        -0.641507         0.700009         -0.641519     
0.00000000000001010000        0.694578        -0.645955         0.694567         -0.645967     
0.00000000000001020000        0.689104        -0.650350         0.689093         -0.650362     
0.00000000000001030000        0.683598        -0.654692         0.683587         -0.654704     
0.00000000000001040000        0.678061        -0.658981         0.678050         -0.658993     
0.00000000000001050000        0.672494        -0.663216         0.672483         -0.663228     
0.00000000000001060000        0.666897        -0.667398         0.666886         -0.667410     
0.00000000000001070000        0.661271        -0.671525         0.661260         -0.671537     
0.00000000000001080000        0.655617        -0.675599         0.655605         -0.675610     
0.00000000000001090000        0.649934        -0.679617         0.649923         -0.679629     
0.00000000000001100000        0.644224        -0.683582         0.644212         -0.683593     
0.00000000000001110000        0.638487        -0.687491         0.638475         -0.687503     
0.00000000000001120000        0.632723        -0.691345         0.632712         -0.691357     
0.00000000000001130000        0.626934        -0.695145         0.626923         -0.695156     
0.00000000000001140000        0.621120        -0.698889         0.621109         -0.698900     
0.00000000000001150000        0.615282        -0.702577         0.615270         -0.702589     
0.00000000000001160000        0.609419        -0.706210         0.609408         -0.706221     
0.00000000000001170000        0.603533        -0.709787         0.603522         -0.709798     
0.00000000000001180000        0.597625        -0.713307         0.597614         -0.713319     
0.00000000000001190000        0.591694        -0.716772         0.591683         -0.716784     
0.00000000000001200000        0.585742        -0.720181         0.585731         -0.720193     
0.00000000000001210000        0.579769        -0.723533         0.579758         -0.723545     
0.00000000000001220000        0.573776        -0.726829         0.573764         -0.726840     
0.00000000000001230000        0.567762        -0.730068         0.567751         -0.730079     
0.00000000000001240000        0.561730        -0.733250         0.561719         -0.733262     
0.00000000000001250000        0.555679        -0.736376         0.555668         -0.736387     
0.00000000000001260000        0.549610        -0.739444         0.549599         -0.739456     
0.00000000000001270000        0.543524        -0.742456         0.543513         -0.742468     
0.00000000000001280000        0.537421        -0.745411         0.537410         -0.745423     
0.00000000000001290000        0.531302        -0.748308         0.531291         -0.748320     
0.00000000000001300000        0.525168        -0.751149         0.525156         -0.751160     
0.00000000000001310000        0.519018        -0.753932         0.519007         -0.753944     
0.00000000000001320000        0.512854        -0.756658         0.512843         -0.756669     
0.00000000000001330000        0.506676        -0.759326         0.506665         -0.759338     
0.00000000000001340000        0.500485        -0.761937         0.500474         -0.761949     
0.00000000000001350000        0.494281        -0.764491         0.494270         -0.764503     
0.00000000000001360000        0.488066        -0.766988         0.488054         -0.766999     
0.00000000000001370000        0.481839        -0.769426         0.481827         -0.769438     
0.00000000000001380000        0.475601        -0.771808         0.475589         -0.771820     
0.00000000000001390000        0.469353        -0.774132         0.469341         -0.774144     
0.00000000000001400000        0.463095        -0.776399         0.463084         -0.776410     
0.00000000000001410000        0.456828        -0.778608         0.456817         -0.778620     
0.00000000000001420000        0.450553        -0.780760         0.450541         -0.780771     
0.00000000000001430000        0.444269        -0.782854         0.444258         -0.782866     
0.00000000000001440000        0.437979        -0.784891         0.437967         -0.784903     
0.00000000000001450000        0.431681        -0.786871         0.431670         -0.786883     
0.00000000000001460000        0.425378        -0.788793         0.425367         -0.788805     
0.00000000000001470000        0.419069        -0.790658         0.419058         -0.790670     
0.00000000000001480000        0.412755        -0.792467         0.412744         -0.792478     
0.00000000000001490000        0.406436        -0.794217         0.406425         -0.794229     
0.00000000000001500000        0.400114        -0.795911         0.400103         -0.795923     
0.00000000000001510000        0.393788        -0.797548         0.393777         -0.797560     
0.00000000000001520000        0.387460        -0.799128         0.387449         -0.799140     
0.00000000000001530000        0.381130        -0.800652         0.381118         -0.800663     
0.00000000000001540000        0.374797        -0.802118         0.374786         -0.802130     
0.00000000000001550000        0.368464        -0.803528         0.368453         -0.803540     
0.00000000000001560000        0.362131        -0.804882         0.362119         -0.804893     
0.00000000000001570000        0.355797        -0.806179         0.355786         -0.806191     
0.00000000000001580000        0.349464        -0.807420         0.349453         -0.807431     
0.00000000000001590000        0.343132        -0.808604         0.343121         -0.808616     
0.00000000000001600000        0.336802        -0.809733         0.336791         -0.809745     
0.00000000000001610000        0.330475        -0.810806         0.330463         -0.810817     
0.00000000000001620000        0.324150        -0.811823         0.324139         -0.811834     
0.00000000000001630000        0.317828        -0.812784         0.317817         -0.812796     
0.00000000000001640000        0.311511        -0.813690         0.311499         -0.813702     
0.00000000000001650000        0.305197        -0.814541         0.305186         -0.814552     
0.00000000000001660000        0.298889        -0.815336         0.298878         -0.815348     
0.00000000000001670000        0.292586        -0.816077         0.292575         -0.816088     
0.00000000000001680000        0.286290        -0.816762         0.286278         -0.816774     
0.00000000000001690000        0.279999        -0.817394         0.279988         -0.817405     
0.00000000000001700000        0.273716        -0.817970         0.273705         -0.817982     
0.00000000000001710000        0.267441        -0.818493         0.267429         -0.818505     
0.00000000000001720000        0.261173        -0.818961         0.261162         -0.818973     
0.00000000000001730000        0.254914        -0.819376         0.254903         -0.819388     
0.00000000000001740000        0.248665        -0.819737         0.248653         -0.819749     
0.00000000000001750000        0.242424        -0.820045         0.242413         -0.820056     
0.00000000000001760000        0.236194        -0.820299         0.236183         -0.820311     
0.00000000000001770000        0.229975        -0.820500         0.229964         -0.820512     
0.00000000000001780000        0.223766        -0.820649         0.223755         -0.820661     
0.00000000000001790000        0.217570        -0.820745         0.217558         -0.820757     
0.00000000000001800000        0.211385        -0.820789         0.211373         -0.820800     
0.00000000000001810000        0.205213        -0.820780         0.205201         -0.820792     
0.00000000000001820000        0.199053        -0.820720         0.199042         -0.820732     
0.00000000000001830000        0.192908        -0.820608         0.192896         -0.820620     
0.00000000000001840000        0.186776        -0.820445         0.186764         -0.820457     
0.00000000000001850000        0.180658        -0.820231         0.180647         -0.820243     
0.00000000000001860000        0.174556        -0.819966         0.174544         -0.819978     
0.00000000000001870000        0.168469        -0.819651         0.168457         -0.819663     
0.00000000000001880000        0.162397        -0.819285         0.162386         -0.819297     
0.00000000000001890000        0.156342        -0.818870         0.156331         -0.818881     
0.00000000000001900000        0.150304        -0.818404         0.150292         -0.818416     
0.00000000000001910000        0.144282        -0.817890         0.144271         -0.817901     
0.00000000000001920000        0.138278        -0.817326         0.138267         -0.817337     
0.00000000000001930000        0.132292        -0.816713         0.132281         -0.816725     
0.00000000000001940000        0.126325        -0.816051         0.126314         -0.816063     
0.00000000000001950000        0.120376        -0.815342         0.120365         -0.815354     
0.00000000000001960000        0.114447        -0.814584         0.114436         -0.814596     
0.00000000000001970000        0.108537        -0.813779         0.108526         -0.813791     
0.00000000000001980000        0.102647        -0.812926         0.102636         -0.812938     
0.00000000000001990000        0.096778        -0.812027         0.096767         -0.812039     
0.00000000000002000000        0.090930        -0.811081         0.090919         -0.811092     
0.00000000000002010000        0.085103        -0.810088         0.085092         -0.810100     
0.00000000000002020000        0.079297        -0.809049         0.079286         -0.809061     
0.00000000000002030000        0.073514        -0.807965         0.073503         -0.807976     
0.00000000000002040000        0.067753        -0.806835         0.067742         -0.806847     
0.00000000000002050000        0.062015        -0.805660         0.062004         -0.805672     
0.00000000000002060000        0.056300        -0.804440         0.056288         -0.804452     
0.00000000000002070000        0.050608        -0.803176         0.050597         -0.803188     
0.00000000000002080000        0.044941        -0.801868         0.044929         -0.801880     
0.00000000000002090000        0.039297        -0.800516         0.039286         -0.800528     
0.00000000000002100000        0.033679        -0.799121         0.033667         -0.799132     
0.00000000000002110000        0.028085        -0.797682         0.028074         -0.797694     
0.00000000000002120000        0.022516        -0.796202         0.022505         -0.796213     
0.00000000000002130000        0.016974        -0.794678         0.016962         -0.794690     
0.00000000000002140000        0.011457        -0.793113         0.011445         -0.793125     
0.00000000000002150000        0.005966        -0.791506         0.005955         -0.791518     
0.00000000000002160000        0.000502        -0.789858         0.000491         -0.789870     
0.00000000000002170000        -0.004935        -0.788170         -0.004946         -0.788181     
0.00000000000002180000        -0.010345        -0.786440         -0.010356         -0.786452     
0.00000000000002190000        -0.015727        -0.784671         -0.015738         -0.784683     
0.00000000000002200000        -0.021081        -0.782862         -0.021092         -0.782874     
0.00000000000002210000        -0.026407        -0.781013         -0.026419         -0.781025     
0.00000000000002220000        -0.031705        -0.779126         -0.031716         -0.779138     
0.00000000000002230000        -0.036974        -0.777200         -0.036985         -0.777211     
0.00000000000002240000        -0.042214        -0.775235         -0.042225         -0.775247     
0.00000000000002250000        -0.047425        -0.773233         -0.047436         -0.773245     
0.00000000000002260000        -0.052606        -0.771194         -0.052617         -0.771205     
0.00000000000002270000        -0.057757        -0.769117         -0.057768         -0.769129     
0.00000000000002280000        -0.062878        -0.767003         -0.062889         -0.767015     
0.00000000000002290000        -0.067969        -0.764854         -0.067980         -0.764865     
0.00000000000002300000        -0.073029        -0.762668         -0.073040         -0.762680     
0.00000000000002310000        -0.078058        -0.760447         -0.078069         -0.760459     
0.00000000000002320000        -0.083056        -0.758191         -0.083067         -0.758203     
0.00000000000002330000        -0.088023        -0.755900         -0.088034         -0.755912     
0.00000000000002340000        -0.092958        -0.753575         -0.092969         -0.753586     
0.00000000000002350000        -0.097861        -0.751215         -0.097872         -0.751227     
0.00000000000002360000        -0.102732        -0.748823         -0.102743         -0.748834     
0.00000000000002370000        -0.107571        -0.746397         -0.107582         -0.746409     
0.00000000000002380000        -0.112377        -0.743938         -0.112389         -0.743950     
0.00000000000002390000        -0.117151        -0.741447         -0.117163         -0.741459     
0.00000000000002400000        -0.121892        -0.738924         -0.121903         -0.738936     
0.00000000000002410000        -0.126600        -0.736370         -0.126611         -0.736382     
0.00000000000002420000        -0.131274        -0.733785         -0.131286         -0.733796     
0.00000000000002430000        -0.135915        -0.731168         -0.135926         -0.731180     
0.00000000000002440000        -0.140522        -0.728522         -0.140534         -0.728534     
0.00000000000002450000        -0.145096        -0.725846         -0.145107         -0.725857     
0.00000000000002460000        -0.149635        -0.723140         -0.149647         -0.723151     
0.00000000000002470000        -0.154141        -0.720405         -0.154152         -0.720417     
0.00000000000002480000        -0.158611        -0.717641         -0.158623         -0.717653     
0.00000000000002490000        -0.163048        -0.714849         -0.163059         -0.714861     
0.00000000000002500000        -0.167449        -0.712030         -0.167461         -0.712041     
0.00000000000002510000        -0.171816        -0.709182         -0.171828         -0.709194     
0.00000000000002520000        -0.176148        -0.706308         -0.176159         -0.706320     
0.00000000000002530000        -0.180445        -0.703407         -0.180456         -0.703419     
0.00000000000002540000        -0.184706        -0.700480         -0.184718         -0.700492     
0.00000000000002550000        -0.188932        -0.697527         -0.188944         -0.697539     
0.00000000000002560000        -0.193123        -0.694549         -0.193134         -0.694561     
0.00000000000002570000        -0.197278        -0.691546         -0.197289         -0.691558     
0.00000000000002580000        -0.201397        -0.688518         -0.201409         -0.688530     
0.00000000000002590000        -0.205481        -0.685466         -0.205492         -0.685478     
0.00000000000002600000        -0.209528        -0.682390         -0.209539         -0.682402     
0.00000000000002610000        -0.213539        -0.679291         -0.213551         -0.679303     
0.00000000000002620000        -0.217515        -0.676169         -0.217526         -0.676181     
0.00000000000002630000        -0.221453        -0.673024         -0.221465         -0.673036     
0.00000000000002640000        -0.225356        -0.669858         -0.225367         -0.669869     
0.00000000000002650000        -0.229222        -0.666669         -0.229233         -0.666681     
0.00000000000002660000        -0.233052        -0.663459         -0.233063         -0.663471     
0.00000000000002670000        -0.236845        -0.660228         -0.236856         -0.660240     
0.00000000000002680000        -0.240601        -0.656977         -0.240612         -0.656989     
0.00000000000002690000        -0.244321        -0.653706         -0.244332         -0.653718     
0.00000000000002700000        -0.248003        -0.650415         -0.248015         -0.650427     
0.00000000000002710000        -0.251649        -0.647104         -0.251661         -0.647116     
0.00000000000002720000        -0.255258        -0.643775         -0.255270         -0.643787     
0.00000000000002730000        -0.258830        -0.640427         -0.258842         -0.640439     
0.00000000000002740000        -0.262366        -0.637061         -0.262377         -0.637073     
0.00000000000002750000        -0.265864        -0.633678         -0.265875         -0.633690     
0.00000000000002760000        -0.269325        -0.630277         -0.269336         -0.630289     
0.00000000000002770000        -0.272748        -0.626859         -0.272760         -0.626871     
0.00000000000002780000        -0.276135        -0.623425         -0.276146         -0.623436     
0.00000000000002790000        -0.279485        -0.619974         -0.279496         -0.619986     
0.00000000000002800000        -0.282797        -0.616508         -0.282808         -0.616520     
0.00000000000002810000        -0.286072        -0.613027         -0.286084         -0.613038     
0.00000000000002820000        -0.289310        -0.609530         -0.289322         -0.609542     
0.00000000000002830000        -0.292511        -0.606019         -0.292522         -0.606031     
0.00000000000002840000        -0.295675        -0.602494         -0.295686         -0.602506     
0.00000000000002850000        -0.298801        -0.598955         -0.298812         -0.598967     
0.00000000000002860000        -0.301890        -0.595402         -0.301901         -0.595414     
0.00000000000002870000        -0.304942        -0.591837         -0.304953         -0.591849     
0.00000000000002880000        -0.307957        -0.588259         -0.307968         -0.588271     
0.00000000000002890000        -0.310934        -0.584669         -0.310945         -0.584680     
0.00000000000002900000        -0.313874        -0.581066         -0.313886         -0.581078     
0.00000000000002910000        -0.316778        -0.577453         -0.316789         -0.577464     
0.00000000000002920000        -0.319644        -0.573828         -0.319655         -0.573840     
0.00000000000002930000        -0.322473        -0.570192         -0.322484         -0.570204     
0.00000000000002940000        -0.325265        -0.566546         -0.325276         -0.566558     
0.00000000000002950000        -0.328020        -0.562890         -0.328031         -0.562902     
0.00000000000002960000        -0.330738        -0.559225         -0.330749         -0.559236     
0.00000000000002970000        -0.333419        -0.555550         -0.333431         -0.555561     
0.00000000000002980000        -0.336064        -0.551866         -0.336075         -0.551878     
0.00000000000002990000        -0.338671        -0.548173         -0.338682         -0.548185     
0.00000000000003000000        -0.341242        -0.544473         -0.341253         -0.544484     
0.00000000000003010000        -0.343776        -0.540764         -0.343787         -0.540776     
0.00000000000003020000        -0.346273        -0.537048         -0.346285         -0.537060     
0.00000000000003030000        -0.348734        -0.533325         -0.348745         -0.533337     
0.00000000000003040000        -0.351158        -0.529595         -0.351170         -0.529607     
0.00000000000003050000        -0.353546        -0.525859         -0.353558         -0.525871     
0.00000000000003060000        -0.355898        -0.522117         -0.355909         -0.522128     
0.00000000000003070000        -0.358213        -0.518369         -0.358225         -0.518380     
0.00000000000003080000        -0.360492        -0.514615         -0.360504         -0.514627     