# Time    F_t_Re (QM_E17)      F_t_Im (QM_E17)       F_t_Re_erf       F_t_Im_erf  
0.00000000000000000000        1.000000        0.000000         1.000000         -0.000000     
0.00000000000000010000        0.999952        -0.007460         0.999952         -0.007460     
0.00000000000000020000        0.999807        -0.014918         0.999807         -0.014918     
0.00000000000000030000        0.999567        -0.022374         0.999567         -0.022374     
0.00000000000000040000        0.999230        -0.029825         0.999230         -0.029825     
0.00000000000000050000        0.998797        -0.037272         0.998797         -0.037272     
0.00000000000000060000        0.998268        -0.044711         0.998268         -0.044711     
0.00000000000000070000        0.997643        -0.052142         0.997643         -0.052142     
0.00000000000000080000        0.996923        -0.059564         0.996923         -0.059564     
0.00000000000000090000        0.996107        -0.066976         0.996107         -0.066976     
0.00000000000000100000        0.995196        -0.074375         0.995196         -0.074375     
0.00000000000000110000        0.994189        -0.081760         0.994189         -0.081760     
0.00000000000000120000        0.993087        -0.089131         0.993087         -0.089131     
0.00000000000000130000        0.991891        -0.096486         0.991891         -0.096486     
0.00000000000000140000        0.990601        -0.103824         0.990601         -0.103824     
0.00000000000000150000        0.989216        -0.111142         0.989216         -0.111142     
0.00000000000000160000        0.987738        -0.118441         0.987738         -0.118441     
0.00000000000000170000        0.986166        -0.125718         0.986166         -0.125718     
0.00000000000000180000        0.984501        -0.132973         0.984501         -0.132973     
0.00000000000000190000        0.982744        -0.140204         0.982744         -0.140204     
0.00000000000000200000        0.980894        -0.147410         0.980894         -0.147410     
0.00000000000000210000        0.978952        -0.154589         0.978952         -0.154589     
0.00000000000000220000        0.976919        -0.161741         0.976919         -0.161741     
0.00000000000000230000        0.974796        -0.168863         0.974796         -0.168863     
0.00000000000000240000        0.972581        -0.175956         0.972581         -0.175956     
0.00000000000000250000        0.970277        -0.183016         0.970277         -0.183016     
0.00000000000000260000        0.967884        -0.190045         0.967884         -0.190045     
0.00000000000000270000        0.965401        -0.197039         0.965401         -0.197039     
0.00000000000000280000        0.962831        -0.203998         0.962831         -0.203998     
0.00000000000000290000        0.960172        -0.210921         0.960172         -0.210921     
0.00000000000000300000        0.957427        -0.217806         0.957427         -0.217806     
0.00000000000000310000        0.954595        -0.224653         0.954595         -0.224653     
0.00000000000000320000        0.951678        -0.231459         0.951678         -0.231459     
0.00000000000000330000        0.948675        -0.238225         0.948675         -0.238225     
0.00000000000000340000        0.945588        -0.244949         0.945588         -0.244949     
0.00000000000000350000        0.942418        -0.251629         0.942418         -0.251629     
0.00000000000000360000        0.939164        -0.258265         0.939164         -0.258265     
0.00000000000000370000        0.935828        -0.264855         0.935828         -0.264855     
0.00000000000000380000        0.932411        -0.271399         0.932411         -0.271399     
0.00000000000000390000        0.928913        -0.277895         0.928913         -0.277895     
0.00000000000000400000        0.925335        -0.284343         0.925335         -0.284343     
0.00000000000000410000        0.921678        -0.290740         0.921678         -0.290740     
0.00000000000000420000        0.917942        -0.297087         0.917942         -0.297087     
0.00000000000000430000        0.914129        -0.303382         0.914129         -0.303382     
0.00000000000000440000        0.910240        -0.309624         0.910240         -0.309624     
0.00000000000000450000        0.906275        -0.315812         0.906275         -0.315812     
0.00000000000000460000        0.902235        -0.321946         0.902235         -0.321946     
0.00000000000000470000        0.898121        -0.328023         0.898121         -0.328023     
0.00000000000000480000        0.893934        -0.334044         0.893934         -0.334044     
0.00000000000000490000        0.889676        -0.340007         0.889676         -0.340007     
0.00000000000000500000        0.885346        -0.345912         0.885346         -0.345912     
0.00000000000000510000        0.880945        -0.351757         0.880945         -0.351757     
0.00000000000000520000        0.876476        -0.357542         0.876476         -0.357542     
0.00000000000000530000        0.871939        -0.363266         0.871939         -0.363266     
0.00000000000000540000        0.867334        -0.368928         0.867334         -0.368928     
0.00000000000000550000        0.862663        -0.374527         0.862663         -0.374527     
0.00000000000000560000        0.857927        -0.380062         0.857927         -0.380062     
0.00000000000000570000        0.853127        -0.385533         0.853127         -0.385533     
0.00000000000000580000        0.848264        -0.390939         0.848264         -0.390939     
0.00000000000000590000        0.843338        -0.396278         0.843338         -0.396278     
0.00000000000000600000        0.838352        -0.401551         0.838352         -0.401551     
0.00000000000000610000        0.833306        -0.406757         0.833306         -0.406757     
0.00000000000000620000        0.828201        -0.411895         0.828201         -0.411895     
0.00000000000000630000        0.823038        -0.416963         0.823038         -0.416963     
0.00000000000000640000        0.817819        -0.421963         0.817819         -0.421963     
0.00000000000000650000        0.812545        -0.426892         0.812545         -0.426892     
0.00000000000000660000        0.807216        -0.431750         0.807216         -0.431750     
0.00000000000000670000        0.801834        -0.436538         0.801834         -0.436538     
0.00000000000000680000        0.796399        -0.441253         0.796399         -0.441253     
0.00000000000000690000        0.790914        -0.445896         0.790914         -0.445896     
0.00000000000000700000        0.785379        -0.450466         0.785379         -0.450466     
0.00000000000000710000        0.779796        -0.454963         0.779796         -0.454963     
0.00000000000000720000        0.774165        -0.459385         0.774165         -0.459385     
0.00000000000000730000        0.768488        -0.463733         0.768488         -0.463733     
0.00000000000000740000        0.762765        -0.468006         0.762765         -0.468006     
0.00000000000000750000        0.756999        -0.472204         0.756999         -0.472204     
0.00000000000000760000        0.751190        -0.476326         0.751190         -0.476326     
0.00000000000000770000        0.745340        -0.480372         0.745340         -0.480372     
0.00000000000000780000        0.739449        -0.484341         0.739449         -0.484341     
0.00000000000000790000        0.733519        -0.488233         0.733519         -0.488233     
0.00000000000000800000        0.727551        -0.492048         0.727551         -0.492048     
0.00000000000000810000        0.721547        -0.495785         0.721547         -0.495785     
0.00000000000000820000        0.715507        -0.499445         0.715507         -0.499445     
0.00000000000000830000        0.709432        -0.503026         0.709432         -0.503026     
0.00000000000000840000        0.703325        -0.506529         0.703325         -0.506529     
0.00000000000000850000        0.697186        -0.509953         0.697186         -0.509953     
0.00000000000000860000        0.691016        -0.513298         0.691016         -0.513298     
0.00000000000000870000        0.684816        -0.516564         0.684816         -0.516564     
0.00000000000000880000        0.678589        -0.519751         0.678589         -0.519751     
0.00000000000000890000        0.672334        -0.522859         0.672334         -0.522859     
0.00000000000000900000        0.666054        -0.525886         0.666054         -0.525886     
0.00000000000000910000        0.659749        -0.528834         0.659749         -0.528834     
0.00000000000000920000        0.653421        -0.531703         0.653421         -0.531703     
0.00000000000000930000        0.647070        -0.534491         0.647070         -0.534491     
0.00000000000000940000        0.640699        -0.537200         0.640699         -0.537200     
0.00000000000000950000        0.634308        -0.539828         0.634308         -0.539828     
0.00000000000000960000        0.627898        -0.542376         0.627898         -0.542376     
0.00000000000000970000        0.621471        -0.544845         0.621471         -0.544845     
0.00000000000000980000        0.615028        -0.547233         0.615028         -0.547233     
0.00000000000000990000        0.608570        -0.549542         0.608570         -0.549542     
0.00000000000001000000        0.602098        -0.551770         0.602098         -0.551770     
0.00000000000001010000        0.595614        -0.553919         0.595614         -0.553919     
0.00000000000001020000        0.589119        -0.555988         0.589119         -0.555988     
0.00000000000001030000        0.582613        -0.557977         0.582613         -0.557977     
0.00000000000001040000        0.576098        -0.559887         0.576098         -0.559887     
0.00000000000001050000        0.569575        -0.561717         0.569575         -0.561717     
0.00000000000001060000        0.563046        -0.563469         0.563046         -0.563469     
0.00000000000001070000        0.556511        -0.565141         0.556511         -0.565141     
0.00000000000001080000        0.549972        -0.566734         0.549972         -0.566734     
0.00000000000001090000        0.543430        -0.568249         0.543430         -0.568249     
0.00000000000001100000        0.536885        -0.569685         0.536885         -0.569685     
0.00000000000001110000        0.530340        -0.571044         0.530340         -0.571044     
0.00000000000001120000        0.523794        -0.572324         0.523794         -0.572324     
0.00000000000001130000        0.517250        -0.573527         0.517250         -0.573527     
0.00000000000001140000        0.510709        -0.574653         0.510709         -0.574653     
0.00000000000001150000        0.504170        -0.575701         0.504170         -0.575701     
0.00000000000001160000        0.497637        -0.576673         0.497637         -0.576673     
0.00000000000001170000        0.491109        -0.577569         0.491109         -0.577569     
0.00000000000001180000        0.484587        -0.578389         0.484587         -0.578389     
0.00000000000001190000        0.478074        -0.579134         0.478074         -0.579134     
0.00000000000001200000        0.471569        -0.579803         0.471569         -0.579803     
0.00000000000001210000        0.465074        -0.580398         0.465074         -0.580398     
0.00000000000001220000        0.458590        -0.580918         0.458590         -0.580918     
0.00000000000001230000        0.452118        -0.581364         0.452118         -0.581364     
0.00000000000001240000        0.445659        -0.581738         0.445659         -0.581738     
0.00000000000001250000        0.439214        -0.582038         0.439214         -0.582038     
0.00000000000001260000        0.432784        -0.582266         0.432784         -0.582266     
0.00000000000001270000        0.426369        -0.582422         0.426369         -0.582422     
0.00000000000001280000        0.419972        -0.582506         0.419972         -0.582506     
0.00000000000001290000        0.413592        -0.582520         0.413592         -0.582520     
0.00000000000001300000        0.407231        -0.582463         0.407231         -0.582463     
0.00000000000001310000        0.400889        -0.582337         0.400889         -0.582337     
0.00000000000001320000        0.394569        -0.582141         0.394569         -0.582141     
0.00000000000001330000        0.388269        -0.581877         0.388269         -0.581877     
0.00000000000001340000        0.381992        -0.581545         0.381992         -0.581545     
0.00000000000001350000        0.375739        -0.581145         0.375739         -0.581145     
0.00000000000001360000        0.369509        -0.580678         0.369509         -0.580678     
0.00000000000001370000        0.363305        -0.580145         0.363305         -0.580145     
0.00000000000001380000        0.357126        -0.579547         0.357126         -0.579547     
0.00000000000001390000        0.350974        -0.578883         0.350974         -0.578883     
0.00000000000001400000        0.344849        -0.578155         0.344849         -0.578155     
0.00000000000001410000        0.338753        -0.577364         0.338753         -0.577364     
0.00000000000001420000        0.332686        -0.576509         0.332686         -0.576509     
0.00000000000001430000        0.326649        -0.575593         0.326649         -0.575593     
0.00000000000001440000        0.320642        -0.574614         0.320642         -0.574614     
0.00000000000001450000        0.314666        -0.573575         0.314666         -0.573575     
0.00000000000001460000        0.308723        -0.572476         0.308723         -0.572476     
0.00000000000001470000        0.302812        -0.571317         0.302812         -0.571317     
0.00000000000001480000        0.296935        -0.570099         0.296935         -0.570099     
0.00000000000001490000        0.291092        -0.568823         0.291092         -0.568823     
0.00000000000001500000        0.285284        -0.567490         0.285284         -0.567490     
0.00000000000001510000        0.279512        -0.566101         0.279512         -0.566101     
0.00000000000001520000        0.273775        -0.564655         0.273775         -0.564655     
0.00000000000001530000        0.268075        -0.563155         0.268075         -0.563155     
0.00000000000001540000        0.262413        -0.561600         0.262413         -0.561600     
0.00000000000001550000        0.256789        -0.559992         0.256789         -0.559992     
0.00000000000001560000        0.251203        -0.558332         0.251203         -0.558332     
0.00000000000001570000        0.245657        -0.556619         0.245657         -0.556619     
0.00000000000001580000        0.240150        -0.554855         0.240150         -0.554855     
0.00000000000001590000        0.234684        -0.553040         0.234684         -0.553040     
0.00000000000001600000        0.229258        -0.551177         0.229258         -0.551177     
0.00000000000001610000        0.223873        -0.549264         0.223873         -0.549264     
0.00000000000001620000        0.218531        -0.547303         0.218531         -0.547303     
0.00000000000001630000        0.213231        -0.545296         0.213231         -0.545296     
0.00000000000001640000        0.207973        -0.543241         0.207973         -0.543241     
0.00000000000001650000        0.202759        -0.541142         0.202759         -0.541142     
0.00000000000001660000        0.197588        -0.538998         0.197588         -0.538998     
0.00000000000001670000        0.192461        -0.536809         0.192461         -0.536809     
0.00000000000001680000        0.187379        -0.534578         0.187379         -0.534578     
0.00000000000001690000        0.182342        -0.532305         0.182342         -0.532305     
0.00000000000001700000        0.177350        -0.529990         0.177350         -0.529990     
0.00000000000001710000        0.172403        -0.527634         0.172403         -0.527634     
0.00000000000001720000        0.167503        -0.525239         0.167503         -0.525239     
0.00000000000001730000        0.162649        -0.522805         0.162649         -0.522805     
0.00000000000001740000        0.157841        -0.520332         0.157841         -0.520332     
0.00000000000001750000        0.153081        -0.517823         0.153081         -0.517823     
0.00000000000001760000        0.148367        -0.515277         0.148367         -0.515277     
0.00000000000001770000        0.143701        -0.512695         0.143701         -0.512695     
0.00000000000001780000        0.139083        -0.510079         0.139083         -0.510079     
0.00000000000001790000        0.134513        -0.507428         0.134513         -0.507428     
0.00000000000001800000        0.129991        -0.504745         0.129991         -0.504745     
0.00000000000001810000        0.125518        -0.502029         0.125518         -0.502029     
0.00000000000001820000        0.121093        -0.499282         0.121093         -0.499282     
0.00000000000001830000        0.116718        -0.496504         0.116718         -0.496504     
0.00000000000001840000        0.112391        -0.493697         0.112391         -0.493697     
0.00000000000001850000        0.108113        -0.490860         0.108113         -0.490860     
0.00000000000001860000        0.103885        -0.487996         0.103885         -0.487996     
0.00000000000001870000        0.099707        -0.485104         0.099707         -0.485104     
0.00000000000001880000        0.095578        -0.482185         0.095578         -0.482185     
0.00000000000001890000        0.091499        -0.479241         0.091499         -0.479241     
0.00000000000001900000        0.087469        -0.476272         0.087469         -0.476272     
0.00000000000001910000        0.083490        -0.473278         0.083490         -0.473278     
0.00000000000001920000        0.079561        -0.470262         0.079561         -0.470262     
0.00000000000001930000        0.075681        -0.467223         0.075681         -0.467223     
0.00000000000001940000        0.071852        -0.464162         0.071852         -0.464162     
0.00000000000001950000        0.068073        -0.461080         0.068073         -0.461080     
0.00000000000001960000        0.064345        -0.457979         0.064345         -0.457979     
0.00000000000001970000        0.060666        -0.454858         0.060666         -0.454858     
0.00000000000001980000        0.057038        -0.451718         0.057038         -0.451718     
0.00000000000001990000        0.053460        -0.448561         0.053460         -0.448561     
0.00000000000002000000        0.049932        -0.445386         0.049932         -0.445386     
0.00000000000002010000        0.046454        -0.442196         0.046454         -0.442196     
0.00000000000002020000        0.043027        -0.438990         0.043027         -0.438990     
0.00000000000002030000        0.039649        -0.435769         0.039649         -0.435769     
0.00000000000002040000        0.036322        -0.432534         0.036322         -0.432534     
0.00000000000002050000        0.033044        -0.429286         0.033044         -0.429286     
0.00000000000002060000        0.029816        -0.426026         0.029816         -0.426026     
0.00000000000002070000        0.026638        -0.422753         0.026638         -0.422753     
0.00000000000002080000        0.023509        -0.419470         0.023509         -0.419470     
0.00000000000002090000        0.020430        -0.416177         0.020430         -0.416177     
0.00000000000002100000        0.017400        -0.412873         0.017400         -0.412873     
0.00000000000002110000        0.014420        -0.409561         0.014420         -0.409561     
0.00000000000002120000        0.011488        -0.406241         0.011488         -0.406241     
0.00000000000002130000        0.008606        -0.402913         0.008606         -0.402913     
0.00000000000002140000        0.005772        -0.399579         0.005772         -0.399579     
0.00000000000002150000        0.002987        -0.396238         0.002987         -0.396238     
0.00000000000002160000        0.000250        -0.392892         0.000250         -0.392892     
0.00000000000002170000        -0.002439        -0.389541         -0.002439         -0.389541     
0.00000000000002180000        -0.005080        -0.386186         -0.005080         -0.386186     
0.00000000000002190000        -0.007673        -0.382827         -0.007673         -0.382827     
0.00000000000002200000        -0.010218        -0.379466         -0.010218         -0.379466     
0.00000000000002210000        -0.012717        -0.376102         -0.012717         -0.376102     
0.00000000000002220000        -0.015168        -0.372737         -0.015168         -0.372737     
0.00000000000002230000        -0.017572        -0.369371         -0.017572         -0.369371     
0.00000000000002240000        -0.019930        -0.366004         -0.019930         -0.366004     
0.00000000000002250000        -0.022242        -0.362638         -0.022242         -0.362638     
0.00000000000002260000        -0.024507        -0.359272         -0.024507         -0.359272     
0.00000000000002270000        -0.026727        -0.355908         -0.026727         -0.355908     
0.00000000000002280000        -0.028901        -0.352546         -0.028901         -0.352546     
0.00000000000002290000        -0.031030        -0.349186         -0.031030         -0.349186     
0.00000000000002300000        -0.033115        -0.345830         -0.033115         -0.345830     
0.00000000000002310000        -0.035154        -0.342477         -0.035154         -0.342477     
0.00000000000002320000        -0.037150        -0.339129         -0.037150         -0.339129     
0.00000000000002330000        -0.039101        -0.335785         -0.039101         -0.335785     
0.00000000000002340000        -0.041009        -0.332447         -0.041009         -0.332447     
0.00000000000002350000        -0.042874        -0.329115         -0.042874         -0.329115     
0.00000000000002360000        -0.044695        -0.325789         -0.044695         -0.325789     
0.00000000000002370000        -0.046474        -0.322469         -0.046474         -0.322469     
0.00000000000002380000        -0.048211        -0.319157         -0.048211         -0.319157     
0.00000000000002390000        -0.049906        -0.315853         -0.049906         -0.315853     
0.00000000000002400000        -0.051559        -0.312558         -0.051559         -0.312558     
0.00000000000002410000        -0.053171        -0.309271         -0.053171         -0.309271     
0.00000000000002420000        -0.054742        -0.305993         -0.054742         -0.305993     
0.00000000000002430000        -0.056273        -0.302725         -0.056273         -0.302725     
0.00000000000002440000        -0.057763        -0.299467         -0.057763         -0.299467     
0.00000000000002450000        -0.059214        -0.296220         -0.059214         -0.296220     
0.00000000000002460000        -0.060625        -0.292983         -0.060625         -0.292983     
0.00000000000002470000        -0.061998        -0.289758         -0.061998         -0.289758     
0.00000000000002480000        -0.063332        -0.286545         -0.063332         -0.286545     
0.00000000000002490000        -0.064627        -0.283344         -0.064627         -0.283344     
0.00000000000002500000        -0.065885        -0.280156         -0.065885         -0.280156     
0.00000000000002510000        -0.067105        -0.276981         -0.067105         -0.276981     
0.00000000000002520000        -0.068288        -0.273819         -0.068288         -0.273819     
0.00000000000002530000        -0.069435        -0.270671         -0.069435         -0.270671     
0.00000000000002540000        -0.070546        -0.267537         -0.070546         -0.267537     
0.00000000000002550000        -0.071620        -0.264417         -0.071620         -0.264417     
0.00000000000002560000        -0.072659        -0.261313         -0.072659         -0.261313     
0.00000000000002570000        -0.073664        -0.258223         -0.073664         -0.258223     
0.00000000000002580000        -0.074633        -0.255149         -0.074633         -0.255149     
0.00000000000002590000        -0.075569        -0.252090         -0.075569         -0.252090     
0.00000000000002600000        -0.076470        -0.249048         -0.076470         -0.249048     
0.00000000000002610000        -0.077339        -0.246022         -0.077339         -0.246022     
0.00000000000002620000        -0.078174        -0.243012         -0.078174         -0.243012     
0.00000000000002630000        -0.078977        -0.240020         -0.078977         -0.240020     
0.00000000000002640000        -0.079747        -0.237045         -0.079747         -0.237045     
0.00000000000002650000        -0.080487        -0.234087         -0.080487         -0.234087     
0.00000000000002660000        -0.081194        -0.231147         -0.081194         -0.231147     
0.00000000000002670000        -0.081871        -0.228225         -0.081871         -0.228225     
0.00000000000002680000        -0.082518        -0.225321         -0.082518         -0.225321     
0.00000000000002690000        -0.083135        -0.222436         -0.083135         -0.222436     
0.00000000000002700000        -0.083722        -0.219569         -0.083722         -0.219569     
0.00000000000002710000        -0.084280        -0.216721         -0.084280         -0.216721     
0.00000000000002720000        -0.084809        -0.213892         -0.084809         -0.213892     
0.00000000000002730000        -0.085310        -0.211083         -0.085310         -0.211083     
0.00000000000002740000        -0.085783        -0.208293         -0.085783         -0.208293     
0.00000000000002750000        -0.086228        -0.205523         -0.086228         -0.205523     
0.00000000000002760000        -0.086647        -0.202772         -0.086647         -0.202772     
0.00000000000002770000        -0.087039        -0.200042         -0.087039         -0.200042     
0.00000000000002780000        -0.087405        -0.197332         -0.087405         -0.197332     
0.00000000000002790000        -0.087745        -0.194642         -0.087745         -0.194642     
0.00000000000002800000        -0.088059        -0.191972         -0.088059         -0.191972     
0.00000000000002810000        -0.088349        -0.189324         -0.088349         -0.189324     
0.00000000000002820000        -0.088614        -0.186696         -0.088614         -0.186696     
0.00000000000002830000        -0.088855        -0.184089         -0.088855         -0.184089     
0.00000000000002840000        -0.089073        -0.181503         -0.089073         -0.181503     
0.00000000000002850000        -0.089267        -0.178938         -0.089267         -0.178938     
0.00000000000002860000        -0.089438        -0.176394         -0.089438         -0.176394     
0.00000000000002870000        -0.089587        -0.173872         -0.089587         -0.173872     
0.00000000000002880000        -0.089714        -0.171371         -0.089714         -0.171371     
0.00000000000002890000        -0.089819        -0.168892         -0.089819         -0.168892     
0.00000000000002900000        -0.089903        -0.166434         -0.089903         -0.166434     
0.00000000000002910000        -0.089966        -0.163998         -0.089966         -0.163998     
0.00000000000002920000        -0.090008        -0.161584         -0.090008         -0.161584     
0.00000000000002930000        -0.090031        -0.159191         -0.090031         -0.159191     
0.00000000000002940000        -0.090034        -0.156820         -0.090034         -0.156820     
0.00000000000002950000        -0.090017        -0.154472         -0.090017         -0.154472     
0.00000000000002960000        -0.089982        -0.152145         -0.089982         -0.152145     
0.00000000000002970000        -0.089928        -0.149840         -0.089928         -0.149840     
0.00000000000002980000        -0.089856        -0.147557         -0.089856         -0.147557     
0.00000000000002990000        -0.089767        -0.145297         -0.089767         -0.145297     
0.00000000000003000000        -0.089660        -0.143058         -0.089660         -0.143058     
0.00000000000003010000        -0.089536        -0.140841         -0.089536         -0.140841     
0.00000000000003020000        -0.089396        -0.138647         -0.089396         -0.138647     
0.00000000000003030000        -0.089239        -0.136475         -0.089239         -0.136475     
0.00000000000003040000        -0.089066        -0.134324         -0.089066         -0.134324     
0.00000000000003050000        -0.088878        -0.132196         -0.088878         -0.132196     
0.00000000000003060000        -0.088675        -0.130090         -0.088675         -0.130090     
0.00000000000003070000        -0.088457        -0.128006         -0.088457         -0.128006     
0.00000000000003080000        -0.088225        -0.125944         -0.088225         -0.125944     