# Time    F_t_Re (Classical)      F_t_Im (Classical)       F_t_Re_erf       F_t_Im_erf  
0.00000000000000000000        1.000000        0.000000         0.388048         0.000000     
0.00000000000000100000        0.999990        0.000000         0.388038         0.000000     
0.00000000000000200000        0.999960        0.000000         0.388008         0.000000     
0.00000000000000300000        0.999910        0.000000         0.387958         0.000000     
0.00000000000000400000        0.999840        0.000000         0.387888         0.000000     
0.00000000000000500000        0.999751        0.000000         0.387798         0.000000     
0.00000000000000600000        0.999641        0.000000         0.387689         0.000000     
0.00000000000000700000        0.999512        0.000000         0.387559         0.000000     
0.00000000000000800000        0.999362        0.000000         0.387410         0.000000     
0.00000000000000900000        0.999193        0.000000         0.387241         0.000000     
0.00000000000001000000        0.999005        0.000000         0.387053         0.000000     
0.00000000000001100000        0.998797        0.000000         0.386845         0.000000     
0.00000000000001200000        0.998569        0.000000         0.386617         0.000000     
0.00000000000001300000        0.998322        0.000000         0.386370         0.000000     
0.00000000000001400000        0.998056        0.000000         0.386104         0.000000     
0.00000000000001500000        0.997770        0.000000         0.385818         0.000000     
0.00000000000001600000        0.997465        0.000000         0.385513         0.000000     
0.00000000000001700000        0.997142        0.000000         0.385189         0.000000     
0.00000000000001800000        0.996799        0.000000         0.384847         0.000000     
0.00000000000001900000        0.996438        0.000000         0.384486         0.000000     
0.00000000000002000000        0.996058        0.000000         0.384106         0.000000     
0.00000000000002100000        0.995659        0.000000         0.383707         0.000000     
0.00000000000002200000        0.995243        0.000000         0.383291         0.000000     
0.00000000000002300000        0.994808        0.000000         0.382856         0.000000     
0.00000000000002400000        0.994355        0.000000         0.382403         0.000000     
0.00000000000002500000        0.993884        0.000000         0.381932         0.000000     
0.00000000000002600000        0.993396        0.000000         0.381443         0.000000     
0.00000000000002700000        0.992890        0.000000         0.380937         0.000000     
0.00000000000002800000        0.992366        0.000000         0.380414         0.000000     
0.00000000000002900000        0.991826        0.000000         0.379874         0.000000     
0.00000000000003000000        0.991268        0.000000         0.379316         0.000000     
0.00000000000003100000        0.990694        0.000000         0.378742         0.000000     
0.00000000000003200000        0.990103        0.000000         0.378151         0.000000     
0.00000000000003300000        0.989496        0.000000         0.377544         0.000000     
0.00000000000003400000        0.988872        0.000000         0.376920         0.000000     
0.00000000000003500000        0.988233        0.000000         0.376281         0.000000     
0.00000000000003600000        0.987578        0.000000         0.375626         0.000000     
0.00000000000003700000        0.986907        0.000000         0.374955         0.000000     
0.00000000000003800000        0.986221        0.000000         0.374269         0.000000     
0.00000000000003900000        0.985519        0.000000         0.373567         0.000000     
0.00000000000004000000        0.984803        0.000000         0.372851         0.000000     
0.00000000000004100000        0.984072        0.000000         0.372120         0.000000     
0.00000000000004200000        0.983326        0.000000         0.371374         0.000000     
0.00000000000004300000        0.982567        0.000000         0.370614         0.000000     
0.00000000000004400000        0.981793        0.000000         0.369841         0.000000     
0.00000000000004500000        0.981005        0.000000         0.369053         0.000000     
0.00000000000004600000        0.980203        0.000000         0.368251         0.000000     
0.00000000000004700000        0.979389        0.000000         0.367436         0.000000     
0.00000000000004800000        0.978560        0.000000         0.366608         0.000000     
0.00000000000004900000        0.977719        0.000000         0.365767         0.000000     
0.00000000000005000000        0.976866        0.000000         0.364913         0.000000     
0.00000000000005100000        0.975999        0.000000         0.364047         0.000000     
0.00000000000005200000        0.975120        0.000000         0.363168         0.000000     
0.00000000000005300000        0.974230        0.000000         0.362278         0.000000     
0.00000000000005400000        0.973327        0.000000         0.361375         0.000000     
0.00000000000005500000        0.972413        0.000000         0.360460         0.000000     
0.00000000000005600000        0.971487        0.000000         0.359535         0.000000     
0.00000000000005700000        0.970550        0.000000         0.358597         0.000000     
0.00000000000005800000        0.969601        0.000000         0.357649         0.000000     
0.00000000000005900000        0.968642        0.000000         0.356690         0.000000     
0.00000000000006000000        0.967673        0.000000         0.355720         0.000000     
0.00000000000006100000        0.966692        0.000000         0.354740         0.000000     
0.00000000000006200000        0.965702        0.000000         0.353750         0.000000     
0.00000000000006300000        0.964702        0.000000         0.352750         0.000000     
0.00000000000006400000        0.963691        0.000000         0.351739         0.000000     
0.00000000000006500000        0.962671        0.000000         0.350719         0.000000     
0.00000000000006600000        0.961642        0.000000         0.349690         0.000000     
0.00000000000006700000        0.960603        0.000000         0.348651         0.000000     
0.00000000000006800000        0.959555        0.000000         0.347603         0.000000     
0.00000000000006900000        0.958499        0.000000         0.346547         0.000000     
0.00000000000007000000        0.957433        0.000000         0.345481         0.000000     
0.00000000000007100000        0.956359        0.000000         0.344407         0.000000     
0.00000000000007200000        0.955276        0.000000         0.343324         0.000000     
0.00000000000007300000        0.954186        0.000000         0.342233         0.000000     
0.00000000000007400000        0.953087        0.000000         0.341135         0.000000     
0.00000000000007500000        0.951980        0.000000         0.340028         0.000000     
0.00000000000007600000        0.950865        0.000000         0.338913         0.000000     
0.00000000000007700000        0.949743        0.000000         0.337791         0.000000     
0.00000000000007800000        0.948613        0.000000         0.336661         0.000000     
0.00000000000007900000        0.947476        0.000000         0.335524         0.000000     
0.00000000000008000000        0.946331        0.000000         0.334379         0.000000     
0.00000000000008100000        0.945180        0.000000         0.333228         0.000000     
0.00000000000008200000        0.944021        0.000000         0.332069         0.000000     
0.00000000000008300000        0.942856        0.000000         0.330904         0.000000     
0.00000000000008400000        0.941684        0.000000         0.329732         0.000000     
0.00000000000008500000        0.940505        0.000000         0.328553         0.000000     
0.00000000000008600000        0.939320        0.000000         0.327368         0.000000     
0.00000000000008700000        0.938129        0.000000         0.326176         0.000000     
0.00000000000008800000        0.936931        0.000000         0.324979         0.000000     
0.00000000000008900000        0.935727        0.000000         0.323775         0.000000     
0.00000000000009000000        0.934517        0.000000         0.322565         0.000000     
0.00000000000009100000        0.933301        0.000000         0.321349         0.000000     
0.00000000000009200000        0.932079        0.000000         0.320127         0.000000     
0.00000000000009300000        0.930852        0.000000         0.318900         0.000000     
0.00000000000009400000        0.929619        0.000000         0.317666         0.000000     
0.00000000000009500000        0.928380        0.000000         0.316428         0.000000     
0.00000000000009600000        0.927135        0.000000         0.315183         0.000000     
0.00000000000009700000        0.925886        0.000000         0.313934         0.000000     
0.00000000000009800000        0.924631        0.000000         0.312678         0.000000     
0.00000000000009900000        0.923370        0.000000         0.311418         0.000000     
0.00000000000010000000        0.922105        0.000000         0.310153         0.000000     
0.00000000000010100000        0.920834        0.000000         0.308882         0.000000     
0.00000000000010200000        0.919558        0.000000         0.307606         0.000000     
0.00000000000010300000        0.918278        0.000000         0.306325         0.000000     
0.00000000000010400000        0.916992        0.000000         0.305040         0.000000     
0.00000000000010500000        0.915701        0.000000         0.303749         0.000000     
0.00000000000010600000        0.914406        0.000000         0.302454         0.000000     
0.00000000000010700000        0.913106        0.000000         0.301154         0.000000     
0.00000000000010800000        0.911801        0.000000         0.299849         0.000000     
0.00000000000010900000        0.910492        0.000000         0.298540         0.000000     
0.00000000000011000000        0.909178        0.000000         0.297226         0.000000     
0.00000000000011100000        0.907860        0.000000         0.295908         0.000000     
0.00000000000011200000        0.906537        0.000000         0.294585         0.000000     
0.00000000000011300000        0.905210        0.000000         0.293258         0.000000     
0.00000000000011400000        0.903878        0.000000         0.291926         0.000000     
0.00000000000011500000        0.902543        0.000000         0.290590         0.000000     
0.00000000000011600000        0.901203        0.000000         0.289250         0.000000     
0.00000000000011700000        0.899858        0.000000         0.287906         0.000000     
0.00000000000011800000        0.898510        0.000000         0.286558         0.000000     
0.00000000000011900000        0.897158        0.000000         0.285206         0.000000     
0.00000000000012000000        0.895801        0.000000         0.283849         0.000000     
0.00000000000012100000        0.894441        0.000000         0.282489         0.000000     
0.00000000000012200000        0.893077        0.000000         0.281125         0.000000     
0.00000000000012300000        0.891709        0.000000         0.279757         0.000000     
0.00000000000012400000        0.890337        0.000000         0.278385         0.000000     
0.00000000000012500000        0.888962        0.000000         0.277010         0.000000     
0.00000000000012600000        0.887583        0.000000         0.275631         0.000000     
0.00000000000012700000        0.886200        0.000000         0.274248         0.000000     
0.00000000000012800000        0.884814        0.000000         0.272862         0.000000     
0.00000000000012900000        0.883424        0.000000         0.271472         0.000000     
0.00000000000013000000        0.882031        0.000000         0.270079         0.000000     
0.00000000000013100000        0.880635        0.000000         0.268683         0.000000     
0.00000000000013200000        0.879235        0.000000         0.267283         0.000000     
0.00000000000013300000        0.877832        0.000000         0.265880         0.000000     
0.00000000000013400000        0.876426        0.000000         0.264474         0.000000     
0.00000000000013500000        0.875017        0.000000         0.263065         0.000000     
0.00000000000013600000        0.873605        0.000000         0.261653         0.000000     
0.00000000000013700000        0.872190        0.000000         0.260238         0.000000     
0.00000000000013800000        0.870773        0.000000         0.258821         0.000000     
0.00000000000013900000        0.869352        0.000000         0.257400         0.000000     
0.00000000000014000000        0.867929        0.000000         0.255977         0.000000     
0.00000000000014100000        0.866503        0.000000         0.254551         0.000000     
0.00000000000014200000        0.865075        0.000000         0.253123         0.000000     
0.00000000000014300000        0.863644        0.000000         0.251692         0.000000     
0.00000000000014400000        0.862211        0.000000         0.250259         0.000000     
0.00000000000014500000        0.860776        0.000000         0.248824         0.000000     
0.00000000000014600000        0.859339        0.000000         0.247387         0.000000     
0.00000000000014700000        0.857899        0.000000         0.245947         0.000000     
0.00000000000014800000        0.856458        0.000000         0.244506         0.000000     
0.00000000000014900000        0.855015        0.000000         0.243062         0.000000     
0.00000000000015000000        0.853570        0.000000         0.241617         0.000000     
0.00000000000015100000        0.852123        0.000000         0.240171         0.000000     
0.00000000000015200000        0.850675        0.000000         0.238722         0.000000     
0.00000000000015300000        0.849225        0.000000         0.237273         0.000000     
0.00000000000015400000        0.847774        0.000000         0.235822         0.000000     
0.00000000000015500000        0.846321        0.000000         0.234369         0.000000     
0.00000000000015600000        0.844868        0.000000         0.232916         0.000000     
0.00000000000015700000        0.843413        0.000000         0.231461         0.000000     
0.00000000000015800000        0.841958        0.000000         0.230006         0.000000     
0.00000000000015900000        0.840502        0.000000         0.228550         0.000000     
0.00000000000016000000        0.839045        0.000000         0.227093         0.000000     
0.00000000000016100000        0.837587        0.000000         0.225635         0.000000     
0.00000000000016200000        0.836129        0.000000         0.224177         0.000000     
0.00000000000016300000        0.834671        0.000000         0.222719         0.000000     
0.00000000000016400000        0.833212        0.000000         0.221260         0.000000     
0.00000000000016500000        0.831754        0.000000         0.219802         0.000000     
0.00000000000016600000        0.830295        0.000000         0.218343         0.000000     
0.00000000000016700000        0.828836        0.000000         0.216884         0.000000     
0.00000000000016800000        0.827378        0.000000         0.215426         0.000000     
0.00000000000016900000        0.825920        0.000000         0.213968         0.000000     
0.00000000000017000000        0.824463        0.000000         0.212510         0.000000     
0.00000000000017100000        0.823006        0.000000         0.211054         0.000000     
0.00000000000017200000        0.821549        0.000000         0.209597         0.000000     
0.00000000000017300000        0.820094        0.000000         0.208142         0.000000     
0.00000000000017400000        0.818640        0.000000         0.206687         0.000000     
0.00000000000017500000        0.817186        0.000000         0.205234         0.000000     
0.00000000000017600000        0.815734        0.000000         0.203782         0.000000     
0.00000000000017700000        0.814283        0.000000         0.202331         0.000000     
0.00000000000017800000        0.812834        0.000000         0.200882         0.000000     
0.00000000000017900000        0.811386        0.000000         0.199434         0.000000     
0.00000000000018000000        0.809940        0.000000         0.197988         0.000000     
0.00000000000018100000        0.808495        0.000000         0.196543         0.000000     
0.00000000000018200000        0.807053        0.000000         0.195100         0.000000     
0.00000000000018300000        0.805612        0.000000         0.193660         0.000000     
0.00000000000018400000        0.804174        0.000000         0.192221         0.000000     
0.00000000000018500000        0.802737        0.000000         0.190785         0.000000     
0.00000000000018600000        0.801303        0.000000         0.189351         0.000000     
0.00000000000018700000        0.799872        0.000000         0.187920         0.000000     
0.00000000000018800000        0.798443        0.000000         0.186491         0.000000     
0.00000000000018900000        0.797016        0.000000         0.185064         0.000000     
0.00000000000019000000        0.795593        0.000000         0.183641         0.000000     
0.00000000000019100000        0.794172        0.000000         0.182220         0.000000     
0.00000000000019200000        0.792754        0.000000         0.180802         0.000000     
0.00000000000019300000        0.791339        0.000000         0.179387         0.000000     
0.00000000000019400000        0.789927        0.000000         0.177975         0.000000     
0.00000000000019500000        0.788519        0.000000         0.176567         0.000000     
0.00000000000019600000        0.787114        0.000000         0.175162         0.000000     
0.00000000000019700000        0.785712        0.000000         0.173760         0.000000     
0.00000000000019800000        0.784313        0.000000         0.172361         0.000000     
0.00000000000019900000        0.782919        0.000000         0.170966         0.000000     
0.00000000000020000000        0.781527        0.000000         0.169575         0.000000     
0.00000000000020100000        0.780140        0.000000         0.168188         0.000000     
0.00000000000020200000        0.778756        0.000000         0.166804         0.000000     
0.00000000000020300000        0.777376        0.000000         0.165424         0.000000     
0.00000000000020400000        0.776000        0.000000         0.164048         0.000000     
0.00000000000020500000        0.774628        0.000000         0.162676         0.000000     
0.00000000000020600000        0.773260        0.000000         0.161307         0.000000     
0.00000000000020700000        0.771896        0.000000         0.159943         0.000000     
0.00000000000020800000        0.770536        0.000000         0.158583         0.000000     
0.00000000000020900000        0.769180        0.000000         0.157228         0.000000     
0.00000000000021000000        0.767828        0.000000         0.155876         0.000000     
0.00000000000021100000        0.766481        0.000000         0.154529         0.000000     
0.00000000000021200000        0.765138        0.000000         0.153186         0.000000     
0.00000000000021300000        0.763800        0.000000         0.151847         0.000000     
0.00000000000021400000        0.762465        0.000000         0.150513         0.000000     
0.00000000000021500000        0.761136        0.000000         0.149183         0.000000     
0.00000000000021600000        0.759810        0.000000         0.147858         0.000000     
0.00000000000021700000        0.758489        0.000000         0.146537         0.000000     
0.00000000000021800000        0.757173        0.000000         0.145221         0.000000     
0.00000000000021900000        0.755861        0.000000         0.143909         0.000000     
0.00000000000022000000        0.754554        0.000000         0.142602         0.000000     
0.00000000000022100000        0.753251        0.000000         0.141299         0.000000     
0.00000000000022200000        0.751953        0.000000         0.140001         0.000000     
0.00000000000022300000        0.750659        0.000000         0.138707         0.000000     
0.00000000000022400000        0.749370        0.000000         0.137418         0.000000     
0.00000000000022500000        0.748086        0.000000         0.136134         0.000000     
0.00000000000022600000        0.746806        0.000000         0.134854         0.000000     
0.00000000000022700000        0.745531        0.000000         0.133578         0.000000     
0.00000000000022800000        0.744260        0.000000         0.132308         0.000000     
0.00000000000022900000        0.742994        0.000000         0.131042         0.000000     
0.00000000000023000000        0.741732        0.000000         0.129780         0.000000     
0.00000000000023100000        0.740475        0.000000         0.128523         0.000000     
0.00000000000023200000        0.739222        0.000000         0.127270         0.000000     
0.00000000000023300000        0.737974        0.000000         0.126022         0.000000     
0.00000000000023400000        0.736731        0.000000         0.124779         0.000000     
0.00000000000023500000        0.735492        0.000000         0.123540         0.000000     
0.00000000000023600000        0.734257        0.000000         0.122305         0.000000     
0.00000000000023700000        0.733027        0.000000         0.121075         0.000000     
0.00000000000023800000        0.731802        0.000000         0.119849         0.000000     
0.00000000000023900000        0.730580        0.000000         0.118628         0.000000     
0.00000000000024000000        0.729363        0.000000         0.117411         0.000000     
0.00000000000024100000        0.728150        0.000000         0.116198         0.000000     
0.00000000000024200000        0.726942        0.000000         0.114990         0.000000     
0.00000000000024300000        0.725738        0.000000         0.113786         0.000000     
0.00000000000024400000        0.724538        0.000000         0.112586         0.000000     
0.00000000000024500000        0.723342        0.000000         0.111390         0.000000     
0.00000000000024600000        0.722151        0.000000         0.110199         0.000000     
0.00000000000024700000        0.720963        0.000000         0.109011         0.000000     
0.00000000000024800000        0.719780        0.000000         0.107828         0.000000     
0.00000000000024900000        0.718601        0.000000         0.106648         0.000000     
0.00000000000025000000        0.717425        0.000000         0.105473         0.000000     
0.00000000000025100000        0.716254        0.000000         0.104302         0.000000     
0.00000000000025200000        0.715086        0.000000         0.103134         0.000000     
0.00000000000025300000        0.713923        0.000000         0.101971         0.000000     
0.00000000000025400000        0.712763        0.000000         0.100811         0.000000     
0.00000000000025500000        0.711607        0.000000         0.099655         0.000000     
0.00000000000025600000        0.710455        0.000000         0.098503         0.000000     
0.00000000000025700000        0.709306        0.000000         0.097354         0.000000     
0.00000000000025800000        0.708161        0.000000         0.096209         0.000000     
0.00000000000025900000        0.707020        0.000000         0.095068         0.000000     
0.00000000000026000000        0.705882        0.000000         0.093930         0.000000     
0.00000000000026100000        0.704748        0.000000         0.092796         0.000000     
0.00000000000026200000        0.703618        0.000000         0.091666         0.000000     
0.00000000000026300000        0.702491        0.000000         0.090538         0.000000     
0.00000000000026400000        0.701367        0.000000         0.089415         0.000000     
0.00000000000026500000        0.700247        0.000000         0.088294         0.000000     
0.00000000000026600000        0.699130        0.000000         0.087177         0.000000     
0.00000000000026700000        0.698016        0.000000         0.086064         0.000000     
0.00000000000026800000        0.696906        0.000000         0.084953         0.000000     
0.00000000000026900000        0.695798        0.000000         0.083846         0.000000     
0.00000000000027000000        0.694695        0.000000         0.082742         0.000000     
0.00000000000027100000        0.693594        0.000000         0.081642         0.000000     
0.00000000000027200000        0.692496        0.000000         0.080544         0.000000     
0.00000000000027300000        0.691402        0.000000         0.079450         0.000000     
0.00000000000027400000        0.690310        0.000000         0.078358         0.000000     
0.00000000000027500000        0.689222        0.000000         0.077270         0.000000     
0.00000000000027600000        0.688137        0.000000         0.076185         0.000000     
0.00000000000027700000        0.687055        0.000000         0.075102         0.000000     
0.00000000000027800000        0.685975        0.000000         0.074023         0.000000     
0.00000000000027900000        0.684899        0.000000         0.072947         0.000000     
0.00000000000028000000        0.683826        0.000000         0.071874         0.000000     
0.00000000000028100000        0.682755        0.000000         0.070803         0.000000     
0.00000000000028200000        0.681688        0.000000         0.069736         0.000000     
0.00000000000028300000        0.680623        0.000000         0.068671         0.000000     
0.00000000000028400000        0.679562        0.000000         0.067609         0.000000     
0.00000000000028500000        0.678503        0.000000         0.066551         0.000000     
0.00000000000028600000        0.677447        0.000000         0.065495         0.000000     
0.00000000000028700000        0.676394        0.000000         0.064441         0.000000     
0.00000000000028800000        0.675343        0.000000         0.063391         0.000000     
0.00000000000028900000        0.674296        0.000000         0.062344         0.000000     
0.00000000000029000000        0.673251        0.000000         0.061299         0.000000     
0.00000000000029100000        0.672209        0.000000         0.060257         0.000000     
0.00000000000029200000        0.671170        0.000000         0.059218         0.000000     
0.00000000000029300000        0.670134        0.000000         0.058182         0.000000     
0.00000000000029400000        0.669101        0.000000         0.057149         0.000000     
0.00000000000029500000        0.668071        0.000000         0.056118         0.000000     
0.00000000000029600000        0.667043        0.000000         0.055091         0.000000     
0.00000000000029700000        0.666018        0.000000         0.054066         0.000000     
0.00000000000029800000        0.664996        0.000000         0.053044         0.000000     
0.00000000000029900000        0.663977        0.000000         0.052025         0.000000     
0.00000000000030000000        0.662961        0.000000         0.051009         0.000000     
0.00000000000030100000        0.661948        0.000000         0.049995         0.000000     
0.00000000000030200000        0.660937        0.000000         0.048985         0.000000     
0.00000000000030300000        0.659930        0.000000         0.047978         0.000000     
0.00000000000030400000        0.658925        0.000000         0.046973         0.000000     
0.00000000000030500000        0.657923        0.000000         0.045971         0.000000     
0.00000000000030600000        0.656925        0.000000         0.044973         0.000000     
0.00000000000030700000        0.655929        0.000000         0.043977         0.000000     
0.00000000000030800000        0.654936        0.000000         0.042984         0.000000     
0.00000000000030900000        0.653946        0.000000         0.041994         0.000000     
0.00000000000031000000        0.652960        0.000000         0.041007         0.000000     
0.00000000000031100000        0.651976        0.000000         0.040024         0.000000     
0.00000000000031200000        0.650995        0.000000         0.039043         0.000000     
0.00000000000031300000        0.650018        0.000000         0.038066         0.000000     
0.00000000000031400000        0.649043        0.000000         0.037091         0.000000     
0.00000000000031500000        0.648072        0.000000         0.036120         0.000000     
0.00000000000031600000        0.647104        0.000000         0.035152         0.000000     
0.00000000000031700000        0.646139        0.000000         0.034187         0.000000     