# Time    F_t_Re (Classical)      F_t_Im (Classical)       F_t_Re_erf       F_t_Im_erf  
0.00000000000000000000        1.000000        0.000000         0.616103         0.000000     
0.00000000000000100000        0.999980        0.000000         0.616083         0.000000     
0.00000000000000200000        0.999920        0.000000         0.616023         0.000000     
0.00000000000000300000        0.999820        0.000000         0.615924         0.000000     
0.00000000000000400000        0.999681        0.000000         0.615784         0.000000     
0.00000000000000500000        0.999501        0.000000         0.615604         0.000000     
0.00000000000000600000        0.999282        0.000000         0.615385         0.000000     
0.00000000000000700000        0.999023        0.000000         0.615127         0.000000     
0.00000000000000800000        0.998725        0.000000         0.614828         0.000000     
0.00000000000000900000        0.998388        0.000000         0.614491         0.000000     
0.00000000000001000000        0.998011        0.000000         0.614114         0.000000     
0.00000000000001100000        0.997595        0.000000         0.613698         0.000000     
0.00000000000001200000        0.997140        0.000000         0.613243         0.000000     
0.00000000000001300000        0.996647        0.000000         0.612750         0.000000     
0.00000000000001400000        0.996115        0.000000         0.612218         0.000000     
0.00000000000001500000        0.995545        0.000000         0.611648         0.000000     
0.00000000000001600000        0.994937        0.000000         0.611040         0.000000     
0.00000000000001700000        0.994291        0.000000         0.610395         0.000000     
0.00000000000001800000        0.993608        0.000000         0.609712         0.000000     
0.00000000000001900000        0.992888        0.000000         0.608991         0.000000     
0.00000000000002000000        0.992131        0.000000         0.608234         0.000000     
0.00000000000002100000        0.991338        0.000000         0.607441         0.000000     
0.00000000000002200000        0.990508        0.000000         0.606611         0.000000     
0.00000000000002300000        0.989642        0.000000         0.605746         0.000000     
0.00000000000002400000        0.988742        0.000000         0.604845         0.000000     
0.00000000000002500000        0.987806        0.000000         0.603909         0.000000     
0.00000000000002600000        0.986835        0.000000         0.602938         0.000000     
0.00000000000002700000        0.985830        0.000000         0.601933         0.000000     
0.00000000000002800000        0.984791        0.000000         0.600894         0.000000     
0.00000000000002900000        0.983718        0.000000         0.599822         0.000000     
0.00000000000003000000        0.982613        0.000000         0.598716         0.000000     
0.00000000000003100000        0.981475        0.000000         0.597578         0.000000     
0.00000000000003200000        0.980304        0.000000         0.596407         0.000000     
0.00000000000003300000        0.979102        0.000000         0.595205         0.000000     
0.00000000000003400000        0.977869        0.000000         0.593972         0.000000     
0.00000000000003500000        0.976605        0.000000         0.592708         0.000000     
0.00000000000003600000        0.975310        0.000000         0.591413         0.000000     
0.00000000000003700000        0.973985        0.000000         0.590089         0.000000     
0.00000000000003800000        0.972631        0.000000         0.588735         0.000000     
0.00000000000003900000        0.971248        0.000000         0.587352         0.000000     
0.00000000000004000000        0.969837        0.000000         0.585940         0.000000     
0.00000000000004100000        0.968398        0.000000         0.584501         0.000000     
0.00000000000004200000        0.966931        0.000000         0.583034         0.000000     
0.00000000000004300000        0.965437        0.000000         0.581540         0.000000     
0.00000000000004400000        0.963917        0.000000         0.580020         0.000000     
0.00000000000004500000        0.962371        0.000000         0.578474         0.000000     
0.00000000000004600000        0.960799        0.000000         0.576902         0.000000     
0.00000000000004700000        0.959202        0.000000         0.575305         0.000000     
0.00000000000004800000        0.957581        0.000000         0.573684         0.000000     
0.00000000000004900000        0.955935        0.000000         0.572038         0.000000     
0.00000000000005000000        0.954266        0.000000         0.570370         0.000000     
0.00000000000005100000        0.952574        0.000000         0.568678         0.000000     
0.00000000000005200000        0.950860        0.000000         0.566963         0.000000     
0.00000000000005300000        0.949123        0.000000         0.565227         0.000000     
0.00000000000005400000        0.947365        0.000000         0.563469         0.000000     
0.00000000000005500000        0.945586        0.000000         0.561689         0.000000     
0.00000000000005600000        0.943786        0.000000         0.559890         0.000000     
0.00000000000005700000        0.941966        0.000000         0.558070         0.000000     
0.00000000000005800000        0.940127        0.000000         0.556230         0.000000     
0.00000000000005900000        0.938268        0.000000         0.554371         0.000000     
0.00000000000006000000        0.936390        0.000000         0.552494         0.000000     
0.00000000000006100000        0.934494        0.000000         0.550598         0.000000     
0.00000000000006200000        0.932581        0.000000         0.548684         0.000000     
0.00000000000006300000        0.930649        0.000000         0.546753         0.000000     
0.00000000000006400000        0.928701        0.000000         0.544804         0.000000     
0.00000000000006500000        0.926736        0.000000         0.542840         0.000000     
0.00000000000006600000        0.924755        0.000000         0.540859         0.000000     
0.00000000000006700000        0.922759        0.000000         0.538862         0.000000     
0.00000000000006800000        0.920747        0.000000         0.536850         0.000000     
0.00000000000006900000        0.918720        0.000000         0.534823         0.000000     
0.00000000000007000000        0.916678        0.000000         0.532781         0.000000     
0.00000000000007100000        0.914623        0.000000         0.530726         0.000000     
0.00000000000007200000        0.912553        0.000000         0.528656         0.000000     
0.00000000000007300000        0.910470        0.000000         0.526573         0.000000     
0.00000000000007400000        0.908374        0.000000         0.524477         0.000000     
0.00000000000007500000        0.906265        0.000000         0.522369         0.000000     
0.00000000000007600000        0.904144        0.000000         0.520248         0.000000     
0.00000000000007700000        0.902011        0.000000         0.518114         0.000000     
0.00000000000007800000        0.899866        0.000000         0.515970         0.000000     
0.00000000000007900000        0.897710        0.000000         0.513813         0.000000     
0.00000000000008000000        0.895543        0.000000         0.511646         0.000000     
0.00000000000008100000        0.893365        0.000000         0.509468         0.000000     
0.00000000000008200000        0.891176        0.000000         0.507279         0.000000     
0.00000000000008300000        0.888977        0.000000         0.505081         0.000000     
0.00000000000008400000        0.886769        0.000000         0.502872         0.000000     
0.00000000000008500000        0.884550        0.000000         0.500653         0.000000     
0.00000000000008600000        0.882322        0.000000         0.498426         0.000000     
0.00000000000008700000        0.880085        0.000000         0.496189         0.000000     
0.00000000000008800000        0.877840        0.000000         0.493943         0.000000     
0.00000000000008900000        0.875585        0.000000         0.491688         0.000000     
0.00000000000009000000        0.873322        0.000000         0.489425         0.000000     
0.00000000000009100000        0.871051        0.000000         0.487154         0.000000     
0.00000000000009200000        0.868772        0.000000         0.484875         0.000000     
0.00000000000009300000        0.866485        0.000000         0.482588         0.000000     
0.00000000000009400000        0.864191        0.000000         0.480294         0.000000     
0.00000000000009500000        0.861889        0.000000         0.477992         0.000000     
0.00000000000009600000        0.859580        0.000000         0.475683         0.000000     
0.00000000000009700000        0.857264        0.000000         0.473368         0.000000     
0.00000000000009800000        0.854942        0.000000         0.471045         0.000000     
0.00000000000009900000        0.852613        0.000000         0.468716         0.000000     
0.00000000000010000000        0.850277        0.000000         0.466380         0.000000     
0.00000000000010100000        0.847935        0.000000         0.464038         0.000000     
0.00000000000010200000        0.845587        0.000000         0.461691         0.000000     
0.00000000000010300000        0.843234        0.000000         0.459337         0.000000     
0.00000000000010400000        0.840874        0.000000         0.456977         0.000000     
0.00000000000010500000        0.838509        0.000000         0.454612         0.000000     
0.00000000000010600000        0.836138        0.000000         0.452242         0.000000     
0.00000000000010700000        0.833763        0.000000         0.449866         0.000000     
0.00000000000010800000        0.831382        0.000000         0.447485         0.000000     
0.00000000000010900000        0.828996        0.000000         0.445099         0.000000     
0.00000000000011000000        0.826605        0.000000         0.442708         0.000000     
0.00000000000011100000        0.824209        0.000000         0.440313         0.000000     
0.00000000000011200000        0.821809        0.000000         0.437913         0.000000     
0.00000000000011300000        0.819405        0.000000         0.435508         0.000000     
0.00000000000011400000        0.816996        0.000000         0.433099         0.000000     
0.00000000000011500000        0.814583        0.000000         0.430686         0.000000     
0.00000000000011600000        0.812166        0.000000         0.428269         0.000000     
0.00000000000011700000        0.809745        0.000000         0.425848         0.000000     
0.00000000000011800000        0.807320        0.000000         0.423424         0.000000     
0.00000000000011900000        0.804892        0.000000         0.420995         0.000000     
0.00000000000012000000        0.802460        0.000000         0.418563         0.000000     
0.00000000000012100000        0.800025        0.000000         0.416128         0.000000     
0.00000000000012200000        0.797587        0.000000         0.413690         0.000000     
0.00000000000012300000        0.795145        0.000000         0.411248         0.000000     
0.00000000000012400000        0.792701        0.000000         0.408804         0.000000     
0.00000000000012500000        0.790253        0.000000         0.406357         0.000000     
0.00000000000012600000        0.787803        0.000000         0.403907         0.000000     
0.00000000000012700000        0.785351        0.000000         0.401454         0.000000     
0.00000000000012800000        0.782896        0.000000         0.398999         0.000000     
0.00000000000012900000        0.780439        0.000000         0.396542         0.000000     
0.00000000000013000000        0.777979        0.000000         0.394082         0.000000     
0.00000000000013100000        0.775518        0.000000         0.391621         0.000000     
0.00000000000013200000        0.773055        0.000000         0.389158         0.000000     
0.00000000000013300000        0.770590        0.000000         0.386693         0.000000     
0.00000000000013400000        0.768123        0.000000         0.384226         0.000000     
0.00000000000013500000        0.765655        0.000000         0.381759         0.000000     
0.00000000000013600000        0.763186        0.000000         0.379290         0.000000     
0.00000000000013700000        0.760716        0.000000         0.376819         0.000000     
0.00000000000013800000        0.758245        0.000000         0.374348         0.000000     
0.00000000000013900000        0.755773        0.000000         0.371876         0.000000     
0.00000000000014000000        0.753301        0.000000         0.369404         0.000000     
0.00000000000014100000        0.750828        0.000000         0.366931         0.000000     
0.00000000000014200000        0.748355        0.000000         0.364458         0.000000     
0.00000000000014300000        0.745882        0.000000         0.361985         0.000000     
0.00000000000014400000        0.743408        0.000000         0.359512         0.000000     
0.00000000000014500000        0.740935        0.000000         0.357039         0.000000     
0.00000000000014600000        0.738463        0.000000         0.354566         0.000000     
0.00000000000014700000        0.735991        0.000000         0.352094         0.000000     
0.00000000000014800000        0.733520        0.000000         0.349623         0.000000     
0.00000000000014900000        0.731050        0.000000         0.347153         0.000000     
0.00000000000015000000        0.728581        0.000000         0.344684         0.000000     
0.00000000000015100000        0.726113        0.000000         0.342217         0.000000     
0.00000000000015200000        0.723647        0.000000         0.339750         0.000000     
0.00000000000015300000        0.721183        0.000000         0.337286         0.000000     
0.00000000000015400000        0.718720        0.000000         0.334824         0.000000     
0.00000000000015500000        0.716260        0.000000         0.332363         0.000000     
0.00000000000015600000        0.713802        0.000000         0.329905         0.000000     
0.00000000000015700000        0.711346        0.000000         0.327449         0.000000     
0.00000000000015800000        0.708893        0.000000         0.324996         0.000000     
0.00000000000015900000        0.706443        0.000000         0.322546         0.000000     
0.00000000000016000000        0.703996        0.000000         0.320099         0.000000     
0.00000000000016100000        0.701552        0.000000         0.317656         0.000000     
0.00000000000016200000        0.699112        0.000000         0.315215         0.000000     
0.00000000000016300000        0.696676        0.000000         0.312779         0.000000     
0.00000000000016400000        0.694243        0.000000         0.310346         0.000000     
0.00000000000016500000        0.691814        0.000000         0.307917         0.000000     
0.00000000000016600000        0.689390        0.000000         0.305493         0.000000     
0.00000000000016700000        0.686970        0.000000         0.303073         0.000000     
0.00000000000016800000        0.684554        0.000000         0.300658         0.000000     
0.00000000000016900000        0.682144        0.000000         0.298247         0.000000     
0.00000000000017000000        0.679739        0.000000         0.295842         0.000000     
0.00000000000017100000        0.677338        0.000000         0.293442         0.000000     
0.00000000000017200000        0.674943        0.000000         0.291047         0.000000     
0.00000000000017300000        0.672554        0.000000         0.288657         0.000000     
0.00000000000017400000        0.670171        0.000000         0.286274         0.000000     
0.00000000000017500000        0.667793        0.000000         0.283897         0.000000     
0.00000000000017600000        0.665422        0.000000         0.281525         0.000000     
0.00000000000017700000        0.663057        0.000000         0.279160         0.000000     
0.00000000000017800000        0.660699        0.000000         0.276802         0.000000     
0.00000000000017900000        0.658347        0.000000         0.274450         0.000000     
0.00000000000018000000        0.656002        0.000000         0.272105         0.000000     
0.00000000000018100000        0.653664        0.000000         0.269768         0.000000     
0.00000000000018200000        0.651334        0.000000         0.267437         0.000000     
0.00000000000018300000        0.649011        0.000000         0.265114         0.000000     
0.00000000000018400000        0.646695        0.000000         0.262798         0.000000     
0.00000000000018500000        0.644387        0.000000         0.260490         0.000000     
0.00000000000018600000        0.642087        0.000000         0.258190         0.000000     
0.00000000000018700000        0.639795        0.000000         0.255898         0.000000     
0.00000000000018800000        0.637511        0.000000         0.253614         0.000000     
0.00000000000018900000        0.635235        0.000000         0.251338         0.000000     
0.00000000000019000000        0.632968        0.000000         0.249071         0.000000     
0.00000000000019100000        0.630709        0.000000         0.246812         0.000000     
0.00000000000019200000        0.628459        0.000000         0.244562         0.000000     
0.00000000000019300000        0.626218        0.000000         0.242321         0.000000     
0.00000000000019400000        0.623985        0.000000         0.240089         0.000000     
0.00000000000019500000        0.621762        0.000000         0.237865         0.000000     
0.00000000000019600000        0.619548        0.000000         0.235651         0.000000     
0.00000000000019700000        0.617343        0.000000         0.233446         0.000000     
0.00000000000019800000        0.615148        0.000000         0.231251         0.000000     
0.00000000000019900000        0.612961        0.000000         0.229065         0.000000     
0.00000000000020000000        0.610785        0.000000         0.226888         0.000000     
0.00000000000020100000        0.608618        0.000000         0.224721         0.000000     
0.00000000000020200000        0.606461        0.000000         0.222564         0.000000     
0.00000000000020300000        0.604313        0.000000         0.220417         0.000000     
0.00000000000020400000        0.602176        0.000000         0.218279         0.000000     
0.00000000000020500000        0.600048        0.000000         0.216151         0.000000     
0.00000000000020600000        0.597930        0.000000         0.214034         0.000000     
0.00000000000020700000        0.595823        0.000000         0.211926         0.000000     
0.00000000000020800000        0.593725        0.000000         0.209828         0.000000     
0.00000000000020900000        0.591638        0.000000         0.207741         0.000000     
0.00000000000021000000        0.589560        0.000000         0.205664         0.000000     
0.00000000000021100000        0.587493        0.000000         0.203597         0.000000     
0.00000000000021200000        0.585436        0.000000         0.201540         0.000000     
0.00000000000021300000        0.583390        0.000000         0.199493         0.000000     
0.00000000000021400000        0.581354        0.000000         0.197457         0.000000     
0.00000000000021500000        0.579327        0.000000         0.195431         0.000000     
0.00000000000021600000        0.577312        0.000000         0.193415         0.000000     
0.00000000000021700000        0.575306        0.000000         0.191409         0.000000     
0.00000000000021800000        0.573311        0.000000         0.189414         0.000000     
0.00000000000021900000        0.571326        0.000000         0.187429         0.000000     
0.00000000000022000000        0.569352        0.000000         0.185455         0.000000     
0.00000000000022100000        0.567387        0.000000         0.183491         0.000000     
0.00000000000022200000        0.565433        0.000000         0.181536         0.000000     
0.00000000000022300000        0.563489        0.000000         0.179593         0.000000     
0.00000000000022400000        0.561556        0.000000         0.177659         0.000000     
0.00000000000022500000        0.559632        0.000000         0.175736         0.000000     
0.00000000000022600000        0.557719        0.000000         0.173822         0.000000     
0.00000000000022700000        0.555816        0.000000         0.171919         0.000000     
0.00000000000022800000        0.553923        0.000000         0.170026         0.000000     
0.00000000000022900000        0.552040        0.000000         0.168143         0.000000     
0.00000000000023000000        0.550166        0.000000         0.166270         0.000000     
0.00000000000023100000        0.548303        0.000000         0.164406         0.000000     
0.00000000000023200000        0.546450        0.000000         0.162553         0.000000     
0.00000000000023300000        0.544606        0.000000         0.160710         0.000000     
0.00000000000023400000        0.542773        0.000000         0.158876         0.000000     
0.00000000000023500000        0.540948        0.000000         0.157052         0.000000     
0.00000000000023600000        0.539134        0.000000         0.155237         0.000000     
0.00000000000023700000        0.537329        0.000000         0.153432         0.000000     
0.00000000000023800000        0.535533        0.000000         0.151637         0.000000     
0.00000000000023900000        0.533747        0.000000         0.149851         0.000000     
0.00000000000024000000        0.531971        0.000000         0.148074         0.000000     
0.00000000000024100000        0.530203        0.000000         0.146306         0.000000     
0.00000000000024200000        0.528445        0.000000         0.144548         0.000000     
0.00000000000024300000        0.526696        0.000000         0.142799         0.000000     
0.00000000000024400000        0.524955        0.000000         0.141059         0.000000     
0.00000000000024500000        0.523224        0.000000         0.139327         0.000000     
0.00000000000024600000        0.521502        0.000000         0.137605         0.000000     
0.00000000000024700000        0.519788        0.000000         0.135891         0.000000     
0.00000000000024800000        0.518083        0.000000         0.134186         0.000000     
0.00000000000024900000        0.516387        0.000000         0.132490         0.000000     
0.00000000000025000000        0.514699        0.000000         0.130802         0.000000     
0.00000000000025100000        0.513020        0.000000         0.129123         0.000000     
0.00000000000025200000        0.511348        0.000000         0.127452         0.000000     
0.00000000000025300000        0.509686        0.000000         0.125789         0.000000     
0.00000000000025400000        0.508031        0.000000         0.124134         0.000000     
0.00000000000025500000        0.506384        0.000000         0.122488         0.000000     
0.00000000000025600000        0.504746        0.000000         0.120849         0.000000     
0.00000000000025700000        0.503115        0.000000         0.119218         0.000000     
0.00000000000025800000        0.501492        0.000000         0.117596         0.000000     
0.00000000000025900000        0.499877        0.000000         0.115981         0.000000     
0.00000000000026000000        0.498270        0.000000         0.114373         0.000000     
0.00000000000026100000        0.496670        0.000000         0.112773         0.000000     
0.00000000000026200000        0.495078        0.000000         0.111181         0.000000     
0.00000000000026300000        0.493493        0.000000         0.109596         0.000000     
0.00000000000026400000        0.491916        0.000000         0.108019         0.000000     
0.00000000000026500000        0.490345        0.000000         0.106448         0.000000     
0.00000000000026600000        0.488782        0.000000         0.104885         0.000000     
0.00000000000026700000        0.487226        0.000000         0.103329         0.000000     
0.00000000000026800000        0.485677        0.000000         0.101781         0.000000     
0.00000000000026900000        0.484136        0.000000         0.100239         0.000000     
0.00000000000027000000        0.482601        0.000000         0.098704         0.000000     
0.00000000000027100000        0.481072        0.000000         0.097176         0.000000     
0.00000000000027200000        0.479551        0.000000         0.095654         0.000000     
0.00000000000027300000        0.478036        0.000000         0.094140         0.000000     
0.00000000000027400000        0.476528        0.000000         0.092632         0.000000     
0.00000000000027500000        0.475027        0.000000         0.091130         0.000000     
0.00000000000027600000        0.473532        0.000000         0.089636         0.000000     
0.00000000000027700000        0.472044        0.000000         0.088147         0.000000     
0.00000000000027800000        0.470562        0.000000         0.086665         0.000000     
0.00000000000027900000        0.469087        0.000000         0.085190         0.000000     
0.00000000000028000000        0.467618        0.000000         0.083721         0.000000     
0.00000000000028100000        0.466155        0.000000         0.082258         0.000000     
0.00000000000028200000        0.464698        0.000000         0.080802         0.000000     
0.00000000000028300000        0.463248        0.000000         0.079351         0.000000     
0.00000000000028400000        0.461804        0.000000         0.077907         0.000000     
0.00000000000028500000        0.460366        0.000000         0.076469         0.000000     
0.00000000000028600000        0.458934        0.000000         0.075037         0.000000     
0.00000000000028700000        0.457508        0.000000         0.073611         0.000000     
0.00000000000028800000        0.456089        0.000000         0.072192         0.000000     
0.00000000000028900000        0.454675        0.000000         0.070778         0.000000     
0.00000000000029000000        0.453267        0.000000         0.069370         0.000000     
0.00000000000029100000        0.451866        0.000000         0.067969         0.000000     
0.00000000000029200000        0.450470        0.000000         0.066573         0.000000     
0.00000000000029300000        0.449080        0.000000         0.065183         0.000000     
0.00000000000029400000        0.447696        0.000000         0.063799         0.000000     
0.00000000000029500000        0.446318        0.000000         0.062422         0.000000     
0.00000000000029600000        0.444946        0.000000         0.061050         0.000000     
0.00000000000029700000        0.443580        0.000000         0.059683         0.000000     
0.00000000000029800000        0.442220        0.000000         0.058323         0.000000     
0.00000000000029900000        0.440866        0.000000         0.056969         0.000000     
0.00000000000030000000        0.439517        0.000000         0.055620         0.000000     
0.00000000000030100000        0.438175        0.000000         0.054278         0.000000     
0.00000000000030200000        0.436838        0.000000         0.052941         0.000000     
0.00000000000030300000        0.435507        0.000000         0.051610         0.000000     
0.00000000000030400000        0.434182        0.000000         0.050285         0.000000     
0.00000000000030500000        0.432863        0.000000         0.048966         0.000000     
0.00000000000030600000        0.431550        0.000000         0.047653         0.000000     
0.00000000000030700000        0.430243        0.000000         0.046346         0.000000     
0.00000000000030800000        0.428941        0.000000         0.045045         0.000000     
0.00000000000030900000        0.427646        0.000000         0.043749         0.000000     
0.00000000000031000000        0.426356        0.000000         0.042459         0.000000     
0.00000000000031100000        0.425073        0.000000         0.041176         0.000000     
0.00000000000031200000        0.423795        0.000000         0.039898         0.000000     
0.00000000000031300000        0.422523        0.000000         0.038626         0.000000     
0.00000000000031400000        0.421257        0.000000         0.037361         0.000000     
0.00000000000031500000        0.419997        0.000000         0.036101         0.000000     
0.00000000000031600000        0.418744        0.000000         0.034847         0.000000     
0.00000000000031700000        0.417496        0.000000         0.033599         0.000000     