# Time    F_t_Re (Classical)      F_t_Im (Classical)       F_t_Re_erf       F_t_Im_erf  
0.00000000000000000000        1.000000        0.000000         0.891269         0.000000     
0.00000000000000100000        0.999950        0.000000         0.891220         0.000000     
0.00000000000000200000        0.999800        0.000000         0.891070         0.000000     
0.00000000000000300000        0.999551        0.000000         0.890820         0.000000     
0.00000000000000400000        0.999202        0.000000         0.890471         0.000000     
0.00000000000000500000        0.998754        0.000000         0.890023         0.000000     
0.00000000000000600000        0.998206        0.000000         0.889476         0.000000     
0.00000000000000700000        0.997560        0.000000         0.888830         0.000000     
0.00000000000000800000        0.996816        0.000000         0.888085         0.000000     
0.00000000000000900000        0.995974        0.000000         0.887243         0.000000     
0.00000000000001000000        0.995034        0.000000         0.886304         0.000000     
0.00000000000001100000        0.993998        0.000000         0.885268         0.000000     
0.00000000000001200000        0.992866        0.000000         0.884135         0.000000     
0.00000000000001300000        0.991638        0.000000         0.882908         0.000000     
0.00000000000001400000        0.990316        0.000000         0.881585         0.000000     
0.00000000000001500000        0.988900        0.000000         0.880169         0.000000     
0.00000000000001600000        0.987391        0.000000         0.878660         0.000000     
0.00000000000001700000        0.985790        0.000000         0.877059         0.000000     
0.00000000000001800000        0.984097        0.000000         0.875367         0.000000     
0.00000000000001900000        0.982315        0.000000         0.873585         0.000000     
0.00000000000002000000        0.980444        0.000000         0.871713         0.000000     
0.00000000000002100000        0.978485        0.000000         0.869754         0.000000     
0.00000000000002200000        0.976439        0.000000         0.867708         0.000000     
0.00000000000002300000        0.974307        0.000000         0.865576         0.000000     
0.00000000000002400000        0.972091        0.000000         0.863360         0.000000     
0.00000000000002500000        0.969792        0.000000         0.861061         0.000000     
0.00000000000002600000        0.967411        0.000000         0.858681         0.000000     
0.00000000000002700000        0.964950        0.000000         0.856219         0.000000     
0.00000000000002800000        0.962410        0.000000         0.853679         0.000000     
0.00000000000002900000        0.959792        0.000000         0.851061         0.000000     
0.00000000000003000000        0.957097        0.000000         0.848367         0.000000     
0.00000000000003100000        0.954328        0.000000         0.845598         0.000000     
0.00000000000003200000        0.951486        0.000000         0.842755         0.000000     
0.00000000000003300000        0.948571        0.000000         0.839841         0.000000     
0.00000000000003400000        0.945587        0.000000         0.836856         0.000000     
0.00000000000003500000        0.942534        0.000000         0.833803         0.000000     
0.00000000000003600000        0.939413        0.000000         0.830682         0.000000     
0.00000000000003700000        0.936227        0.000000         0.827496         0.000000     
0.00000000000003800000        0.932976        0.000000         0.824246         0.000000     
0.00000000000003900000        0.929664        0.000000         0.820933         0.000000     
0.00000000000004000000        0.926290        0.000000         0.817559         0.000000     
0.00000000000004100000        0.922857        0.000000         0.814126         0.000000     
0.00000000000004200000        0.919366        0.000000         0.810636         0.000000     
0.00000000000004300000        0.915820        0.000000         0.807089         0.000000     
0.00000000000004400000        0.912219        0.000000         0.803488         0.000000     
0.00000000000004500000        0.908564        0.000000         0.799834         0.000000     
0.00000000000004600000        0.904859        0.000000         0.796129         0.000000     
0.00000000000004700000        0.901104        0.000000         0.792374         0.000000     
0.00000000000004800000        0.897301        0.000000         0.788571         0.000000     
0.00000000000004900000        0.893452        0.000000         0.784721         0.000000     
0.00000000000005000000        0.889557        0.000000         0.780827         0.000000     
0.00000000000005100000        0.885620        0.000000         0.776889         0.000000     
0.00000000000005200000        0.881640        0.000000         0.772910         0.000000     
0.00000000000005300000        0.877620        0.000000         0.768890         0.000000     
0.00000000000005400000        0.873562        0.000000         0.764831         0.000000     
0.00000000000005500000        0.869466        0.000000         0.760736         0.000000     
0.00000000000005600000        0.865335        0.000000         0.756604         0.000000     
0.00000000000005700000        0.861169        0.000000         0.752439         0.000000     
0.00000000000005800000        0.856971        0.000000         0.748240         0.000000     
0.00000000000005900000        0.852741        0.000000         0.744011         0.000000     
0.00000000000006000000        0.848481        0.000000         0.739751         0.000000     
0.00000000000006100000        0.844193        0.000000         0.735462         0.000000     
0.00000000000006200000        0.839877        0.000000         0.731147         0.000000     
0.00000000000006300000        0.835536        0.000000         0.726806         0.000000     
0.00000000000006400000        0.831170        0.000000         0.722440         0.000000     
0.00000000000006500000        0.826781        0.000000         0.718050         0.000000     
0.00000000000006600000        0.822370        0.000000         0.713639         0.000000     
0.00000000000006700000        0.817938        0.000000         0.709207         0.000000     
0.00000000000006800000        0.813487        0.000000         0.704756         0.000000     
0.00000000000006900000        0.809017        0.000000         0.700286         0.000000     
0.00000000000007000000        0.804530        0.000000         0.695800         0.000000     
0.00000000000007100000        0.800027        0.000000         0.691297         0.000000     
0.00000000000007200000        0.795509        0.000000         0.686779         0.000000     
0.00000000000007300000        0.790978        0.000000         0.682247         0.000000     
0.00000000000007400000        0.786433        0.000000         0.677703         0.000000     
0.00000000000007500000        0.781877        0.000000         0.673147         0.000000     
0.00000000000007600000        0.777310        0.000000         0.668580         0.000000     
0.00000000000007700000        0.772734        0.000000         0.664003         0.000000     
0.00000000000007800000        0.768148        0.000000         0.659418         0.000000     
0.00000000000007900000        0.763555        0.000000         0.654825         0.000000     
0.00000000000008000000        0.758955        0.000000         0.650224         0.000000     
0.00000000000008100000        0.754349        0.000000         0.645618         0.000000     
0.00000000000008200000        0.749737        0.000000         0.641006         0.000000     
0.00000000000008300000        0.745121        0.000000         0.636390         0.000000     
0.00000000000008400000        0.740501        0.000000         0.631771         0.000000     
0.00000000000008500000        0.735879        0.000000         0.627148         0.000000     
0.00000000000008600000        0.731254        0.000000         0.622523         0.000000     
0.00000000000008700000        0.726628        0.000000         0.617897         0.000000     
0.00000000000008800000        0.722001        0.000000         0.613270         0.000000     
0.00000000000008900000        0.717374        0.000000         0.608644         0.000000     
0.00000000000009000000        0.712748        0.000000         0.604018         0.000000     
0.00000000000009100000        0.708123        0.000000         0.599393         0.000000     
0.00000000000009200000        0.703501        0.000000         0.594770         0.000000     
0.00000000000009300000        0.698880        0.000000         0.590150         0.000000     
0.00000000000009400000        0.694263        0.000000         0.585532         0.000000     
0.00000000000009500000        0.689649        0.000000         0.580919         0.000000     
0.00000000000009600000        0.685040        0.000000         0.576309         0.000000     
0.00000000000009700000        0.680435        0.000000         0.571705         0.000000     
0.00000000000009800000        0.675836        0.000000         0.567105         0.000000     
0.00000000000009900000        0.671242        0.000000         0.562512         0.000000     
0.00000000000010000000        0.666655        0.000000         0.557924         0.000000     
0.00000000000010100000        0.662074        0.000000         0.553344         0.000000     
0.00000000000010200000        0.657501        0.000000         0.548770         0.000000     
0.00000000000010300000        0.652935        0.000000         0.544204         0.000000     
0.00000000000010400000        0.648377        0.000000         0.539646         0.000000     
0.00000000000010500000        0.643827        0.000000         0.535097         0.000000     
0.00000000000010600000        0.639286        0.000000         0.530556         0.000000     
0.00000000000010700000        0.634755        0.000000         0.526024         0.000000     
0.00000000000010800000        0.630233        0.000000         0.521502         0.000000     
0.00000000000010900000        0.625721        0.000000         0.516990         0.000000     
0.00000000000011000000        0.621219        0.000000         0.512489         0.000000     
0.00000000000011100000        0.616728        0.000000         0.507998         0.000000     
0.00000000000011200000        0.612248        0.000000         0.503518         0.000000     
0.00000000000011300000        0.607780        0.000000         0.499049         0.000000     
0.00000000000011400000        0.603323        0.000000         0.494592         0.000000     
0.00000000000011500000        0.598878        0.000000         0.490147         0.000000     
0.00000000000011600000        0.594445        0.000000         0.485715         0.000000     
0.00000000000011700000        0.590025        0.000000         0.481295         0.000000     
0.00000000000011800000        0.585618        0.000000         0.476888         0.000000     
0.00000000000011900000        0.581225        0.000000         0.472494         0.000000     
0.00000000000012000000        0.576845        0.000000         0.468114         0.000000     
0.00000000000012100000        0.572478        0.000000         0.463748         0.000000     
0.00000000000012200000        0.568126        0.000000         0.459395         0.000000     
0.00000000000012300000        0.563788        0.000000         0.455058         0.000000     
0.00000000000012400000        0.559465        0.000000         0.450735         0.000000     
0.00000000000012500000        0.555157        0.000000         0.446426         0.000000     
0.00000000000012600000        0.550864        0.000000         0.442134         0.000000     
0.00000000000012700000        0.546587        0.000000         0.437856         0.000000     
0.00000000000012800000        0.542325        0.000000         0.433595         0.000000     
0.00000000000012900000        0.538080        0.000000         0.429349         0.000000     
0.00000000000013000000        0.533851        0.000000         0.425120         0.000000     
0.00000000000013100000        0.529638        0.000000         0.420908         0.000000     
0.00000000000013200000        0.525443        0.000000         0.416712         0.000000     
0.00000000000013300000        0.521264        0.000000         0.412534         0.000000     
0.00000000000013400000        0.517103        0.000000         0.408373         0.000000     
0.00000000000013500000        0.512960        0.000000         0.404229         0.000000     
0.00000000000013600000        0.508834        0.000000         0.400104         0.000000     
0.00000000000013700000        0.504727        0.000000         0.395996         0.000000     
0.00000000000013800000        0.500638        0.000000         0.391908         0.000000     
0.00000000000013900000        0.496568        0.000000         0.387837         0.000000     
0.00000000000014000000        0.492517        0.000000         0.383786         0.000000     
0.00000000000014100000        0.488485        0.000000         0.379754         0.000000     
0.00000000000014200000        0.484472        0.000000         0.375742         0.000000     
0.00000000000014300000        0.480479        0.000000         0.371749         0.000000     
0.00000000000014400000        0.476506        0.000000         0.367776         0.000000     
0.00000000000014500000        0.472553        0.000000         0.363823         0.000000     
0.00000000000014600000        0.468621        0.000000         0.359891         0.000000     
0.00000000000014700000        0.464709        0.000000         0.355979         0.000000     
0.00000000000014800000        0.460819        0.000000         0.352088         0.000000     
0.00000000000014900000        0.456949        0.000000         0.348218         0.000000     
0.00000000000015000000        0.453100        0.000000         0.344370         0.000000     
0.00000000000015100000        0.449274        0.000000         0.340543         0.000000     
0.00000000000015200000        0.445469        0.000000         0.336738         0.000000     
0.00000000000015300000        0.441686        0.000000         0.332955         0.000000     
0.00000000000015400000        0.437925        0.000000         0.329195         0.000000     
0.00000000000015500000        0.434187        0.000000         0.325456         0.000000     
0.00000000000015600000        0.430471        0.000000         0.321741         0.000000     
0.00000000000015700000        0.426779        0.000000         0.318048         0.000000     
0.00000000000015800000        0.423109        0.000000         0.314378         0.000000     
0.00000000000015900000        0.419463        0.000000         0.310732         0.000000     
0.00000000000016000000        0.415840        0.000000         0.307109         0.000000     
0.00000000000016100000        0.412240        0.000000         0.303510         0.000000     
0.00000000000016200000        0.408665        0.000000         0.299934         0.000000     
0.00000000000016300000        0.405113        0.000000         0.296383         0.000000     
0.00000000000016400000        0.401586        0.000000         0.292855         0.000000     
0.00000000000016500000        0.398083        0.000000         0.289353         0.000000     
0.00000000000016600000        0.394605        0.000000         0.285874         0.000000     
0.00000000000016700000        0.391151        0.000000         0.282420         0.000000     
0.00000000000016800000        0.387722        0.000000         0.278991         0.000000     
0.00000000000016900000        0.384317        0.000000         0.275587         0.000000     
0.00000000000017000000        0.380938        0.000000         0.272208         0.000000     
0.00000000000017100000        0.377584        0.000000         0.268854         0.000000     
0.00000000000017200000        0.374256        0.000000         0.265525         0.000000     
0.00000000000017300000        0.370953        0.000000         0.262222         0.000000     
0.00000000000017400000        0.367675        0.000000         0.258944         0.000000     
0.00000000000017500000        0.364423        0.000000         0.255692         0.000000     
0.00000000000017600000        0.361196        0.000000         0.252466         0.000000     
0.00000000000017700000        0.357995        0.000000         0.249265         0.000000     
0.00000000000017800000        0.354821        0.000000         0.246090         0.000000     
0.00000000000017900000        0.351672        0.000000         0.242941         0.000000     
0.00000000000018000000        0.348549        0.000000         0.239818         0.000000     
0.00000000000018100000        0.345452        0.000000         0.236721         0.000000     
0.00000000000018200000        0.342381        0.000000         0.233650         0.000000     
0.00000000000018300000        0.339336        0.000000         0.230605         0.000000     
0.00000000000018400000        0.336317        0.000000         0.227586         0.000000     
0.00000000000018500000        0.333324        0.000000         0.224594         0.000000     
0.00000000000018600000        0.330358        0.000000         0.221627         0.000000     
0.00000000000018700000        0.327417        0.000000         0.218687         0.000000     
0.00000000000018800000        0.324503        0.000000         0.215773         0.000000     
0.00000000000018900000        0.321615        0.000000         0.212884         0.000000     
0.00000000000019000000        0.318753        0.000000         0.210022         0.000000     
0.00000000000019100000        0.315917        0.000000         0.207186         0.000000     
0.00000000000019200000        0.313107        0.000000         0.204376         0.000000     
0.00000000000019300000        0.310323        0.000000         0.201592         0.000000     
0.00000000000019400000        0.307564        0.000000         0.198834         0.000000     
0.00000000000019500000        0.304832        0.000000         0.196101         0.000000     
0.00000000000019600000        0.302125        0.000000         0.193395         0.000000     
0.00000000000019700000        0.299445        0.000000         0.190714         0.000000     
0.00000000000019800000        0.296789        0.000000         0.188059         0.000000     
0.00000000000019900000        0.294159        0.000000         0.185429         0.000000     
0.00000000000020000000        0.291555        0.000000         0.182825         0.000000     
0.00000000000020100000        0.288976        0.000000         0.180246         0.000000     
0.00000000000020200000        0.286422        0.000000         0.177692         0.000000     
0.00000000000020300000        0.283893        0.000000         0.175163         0.000000     
0.00000000000020400000        0.281390        0.000000         0.172659         0.000000     
0.00000000000020500000        0.278911        0.000000         0.170180         0.000000     
0.00000000000020600000        0.276456        0.000000         0.167726         0.000000     
0.00000000000020700000        0.274027        0.000000         0.165296         0.000000     
0.00000000000020800000        0.271621        0.000000         0.162891         0.000000     
0.00000000000020900000        0.269240        0.000000         0.160509         0.000000     
0.00000000000021000000        0.266883        0.000000         0.158152         0.000000     
0.00000000000021100000        0.264550        0.000000         0.155819         0.000000     
0.00000000000021200000        0.262240        0.000000         0.153510         0.000000     
0.00000000000021300000        0.259954        0.000000         0.151224         0.000000     
0.00000000000021400000        0.257692        0.000000         0.148961         0.000000     
0.00000000000021500000        0.255453        0.000000         0.146722         0.000000     
0.00000000000021600000        0.253236        0.000000         0.144506         0.000000     
0.00000000000021700000        0.251043        0.000000         0.142312         0.000000     
0.00000000000021800000        0.248872        0.000000         0.140141         0.000000     
0.00000000000021900000        0.246723        0.000000         0.137993         0.000000     
0.00000000000022000000        0.244597        0.000000         0.135867         0.000000     
0.00000000000022100000        0.242493        0.000000         0.133762         0.000000     
0.00000000000022200000        0.240410        0.000000         0.131680         0.000000     
0.00000000000022300000        0.238350        0.000000         0.129619         0.000000     
0.00000000000022400000        0.236310        0.000000         0.127580         0.000000     
0.00000000000022500000        0.234292        0.000000         0.125561         0.000000     
0.00000000000022600000        0.232294        0.000000         0.123564         0.000000     
0.00000000000022700000        0.230318        0.000000         0.121587         0.000000     
0.00000000000022800000        0.228362        0.000000         0.119631         0.000000     
0.00000000000022900000        0.226426        0.000000         0.117695         0.000000     
0.00000000000023000000        0.224510        0.000000         0.115779         0.000000     
0.00000000000023100000        0.222614        0.000000         0.113883         0.000000     
0.00000000000023200000        0.220737        0.000000         0.112007         0.000000     
0.00000000000023300000        0.218880        0.000000         0.110150         0.000000     
0.00000000000023400000        0.217042        0.000000         0.108312         0.000000     
0.00000000000023500000        0.215223        0.000000         0.106493         0.000000     
0.00000000000023600000        0.213423        0.000000         0.104693         0.000000     
0.00000000000023700000        0.211641        0.000000         0.102911         0.000000     
0.00000000000023800000        0.209878        0.000000         0.101147         0.000000     
0.00000000000023900000        0.208132        0.000000         0.099402         0.000000     
0.00000000000024000000        0.206404        0.000000         0.097674         0.000000     
0.00000000000024100000        0.204694        0.000000         0.095964         0.000000     
0.00000000000024200000        0.203001        0.000000         0.094271         0.000000     
0.00000000000024300000        0.201326        0.000000         0.092595         0.000000     
0.00000000000024400000        0.199667        0.000000         0.090936         0.000000     
0.00000000000024500000        0.198025        0.000000         0.089294         0.000000     
0.00000000000024600000        0.196399        0.000000         0.087668         0.000000     
0.00000000000024700000        0.194790        0.000000         0.086059         0.000000     
0.00000000000024800000        0.193196        0.000000         0.084466         0.000000     
0.00000000000024900000        0.191619        0.000000         0.082888         0.000000     
0.00000000000025000000        0.190057        0.000000         0.081326         0.000000     
0.00000000000025100000        0.188510        0.000000         0.079780         0.000000     
0.00000000000025200000        0.186979        0.000000         0.078248         0.000000     
0.00000000000025300000        0.185462        0.000000         0.076732         0.000000     
0.00000000000025400000        0.183961        0.000000         0.075230         0.000000     
0.00000000000025500000        0.182474        0.000000         0.073743         0.000000     
0.00000000000025600000        0.181001        0.000000         0.072271         0.000000     
0.00000000000025700000        0.179543        0.000000         0.070813         0.000000     
0.00000000000025800000        0.178099        0.000000         0.069368         0.000000     
0.00000000000025900000        0.176668        0.000000         0.067938         0.000000     
0.00000000000026000000        0.175252        0.000000         0.066521         0.000000     
0.00000000000026100000        0.173848        0.000000         0.065118         0.000000     
0.00000000000026200000        0.172458        0.000000         0.063728         0.000000     
0.00000000000026300000        0.171081        0.000000         0.062351         0.000000     
0.00000000000026400000        0.169717        0.000000         0.060987         0.000000     
0.00000000000026500000        0.168366        0.000000         0.059636         0.000000     
0.00000000000026600000        0.167028        0.000000         0.058297         0.000000     
0.00000000000026700000        0.165702        0.000000         0.056971         0.000000     
0.00000000000026800000        0.164388        0.000000         0.055657         0.000000     
0.00000000000026900000        0.163086        0.000000         0.054356         0.000000     
0.00000000000027000000        0.161797        0.000000         0.053066         0.000000     
0.00000000000027100000        0.160519        0.000000         0.051788         0.000000     
0.00000000000027200000        0.159253        0.000000         0.050522         0.000000     
0.00000000000027300000        0.157998        0.000000         0.049268         0.000000     
0.00000000000027400000        0.156755        0.000000         0.048025         0.000000     
0.00000000000027500000        0.155524        0.000000         0.046793         0.000000     
0.00000000000027600000        0.154303        0.000000         0.045572         0.000000     
0.00000000000027700000        0.153093        0.000000         0.044363         0.000000     
0.00000000000027800000        0.151895        0.000000         0.043164         0.000000     
0.00000000000027900000        0.150707        0.000000         0.041976         0.000000     
0.00000000000028000000        0.149530        0.000000         0.040799         0.000000     
0.00000000000028100000        0.148363        0.000000         0.039632         0.000000     
0.00000000000028200000        0.147207        0.000000         0.038476         0.000000     
0.00000000000028300000        0.146061        0.000000         0.037330         0.000000     
0.00000000000028400000        0.144925        0.000000         0.036195         0.000000     
0.00000000000028500000        0.143800        0.000000         0.035069         0.000000     
0.00000000000028600000        0.142684        0.000000         0.033954         0.000000     
0.00000000000028700000        0.141579        0.000000         0.032848         0.000000     
0.00000000000028800000        0.140483        0.000000         0.031752         0.000000     
0.00000000000028900000        0.139397        0.000000         0.030666         0.000000     
0.00000000000029000000        0.138320        0.000000         0.029590         0.000000     
0.00000000000029100000        0.137253        0.000000         0.028523         0.000000     
0.00000000000029200000        0.136196        0.000000         0.027465         0.000000     
0.00000000000029300000        0.135148        0.000000         0.026417         0.000000     
0.00000000000029400000        0.134109        0.000000         0.025379         0.000000     
0.00000000000029500000        0.133080        0.000000         0.024349         0.000000     
0.00000000000029600000        0.132059        0.000000         0.023329         0.000000     
0.00000000000029700000        0.131048        0.000000         0.022317         0.000000     
0.00000000000029800000        0.130046        0.000000         0.021315         0.000000     
0.00000000000029900000        0.129052        0.000000         0.020322         0.000000     
0.00000000000030000000        0.128068        0.000000         0.019337         0.000000     
0.00000000000030100000        0.127092        0.000000         0.018361         0.000000     
0.00000000000030200000        0.126125        0.000000         0.017394         0.000000     
0.00000000000030300000        0.125167        0.000000         0.016436         0.000000     
0.00000000000030400000        0.124217        0.000000         0.015486         0.000000     
0.00000000000030500000        0.123275        0.000000         0.014545         0.000000     
0.00000000000030600000        0.122343        0.000000         0.013612         0.000000     
0.00000000000030700000        0.121418        0.000000         0.012688         0.000000     
0.00000000000030800000        0.120502        0.000000         0.011772         0.000000     
0.00000000000030900000        0.119594        0.000000         0.010864         0.000000     
0.00000000000031000000        0.118695        0.000000         0.009964         0.000000     
0.00000000000031100000        0.117803        0.000000         0.009073         0.000000     
0.00000000000031200000        0.116920        0.000000         0.008190         0.000000     
0.00000000000031300000        0.116045        0.000000         0.007314         0.000000     
0.00000000000031400000        0.115178        0.000000         0.006447         0.000000     
0.00000000000031500000        0.114319        0.000000         0.005588         0.000000     
0.00000000000031600000        0.113467        0.000000         0.004737         0.000000     
0.00000000000031700000        0.112624        0.000000         0.003893         0.000000     