# Time    F_t_Re (QM_E17)      F_t_Im (QM_E17)       F_t_Re_erf       F_t_Im_erf  
0.00000000000000000000        1.000000        0.000000         0.758663         0.001826     
0.00000000000000100000        0.999200        -0.029311         0.757863         -0.027485     
0.00000000000000200000        0.996803        -0.058509         0.755466         -0.056683     
0.00000000000000300000        0.992826        -0.087482         0.751489         -0.085656     
0.00000000000000400000        0.987291        -0.116119         0.745954         -0.114293     
0.00000000000000500000        0.980232        -0.144313         0.738895         -0.142487     
0.00000000000000600000        0.971691        -0.171960         0.730354         -0.170134     
0.00000000000000700000        0.961718        -0.198962         0.720381         -0.197135     
0.00000000000000800000        0.950373        -0.225223         0.709036         -0.223397     
0.00000000000000900000        0.937719        -0.250657         0.696382         -0.248831     
0.00000000000001000000        0.923830        -0.275183         0.682493         -0.273357     
0.00000000000001100000        0.908784        -0.298726         0.667447         -0.296900     
0.00000000000001200000        0.892662        -0.321220         0.651325         -0.319394     
0.00000000000001300000        0.875553        -0.342607         0.634215         -0.340781     
0.00000000000001400000        0.857545        -0.362837         0.616208         -0.361010     
0.00000000000001500000        0.838733        -0.381867         0.597396         -0.380041     
0.00000000000001600000        0.819209        -0.399665         0.577872         -0.397838     
0.00000000000001700000        0.799070        -0.416205         0.557733         -0.414379     
0.00000000000001800000        0.778410        -0.431471         0.537073         -0.429644     
0.00000000000001900000        0.757324        -0.445453         0.515987         -0.443627     
0.00000000000002000000        0.735903        -0.458151         0.494566         -0.456325     
0.00000000000002100000        0.714239        -0.469570         0.472902         -0.467744     
0.00000000000002200000        0.692418        -0.479725         0.451081         -0.477899     
0.00000000000002300000        0.670526        -0.488634         0.429189         -0.486807     
0.00000000000002400000        0.648642        -0.496323         0.407305         -0.494497     
0.00000000000002500000        0.626842        -0.502823         0.385505         -0.500997     
0.00000000000002600000        0.605199        -0.508170         0.363862         -0.506344     
0.00000000000002700000        0.583778        -0.512405         0.342441         -0.510578     
0.00000000000002800000        0.562641        -0.515570         0.321304         -0.513744     
0.00000000000002900000        0.541845        -0.517714         0.300508         -0.515888     
0.00000000000003000000        0.521440        -0.518886         0.280103         -0.517059     
0.00000000000003100000        0.501472        -0.519136         0.260135         -0.517310     
0.00000000000003200000        0.481981        -0.518520         0.240644         -0.516694     
0.00000000000003300000        0.463003        -0.517090         0.221666         -0.515264     
0.00000000000003400000        0.444567        -0.514902         0.203230         -0.513075     
0.00000000000003500000        0.426699        -0.512009         0.185362         -0.510183     
0.00000000000003600000        0.409419        -0.508467         0.168082         -0.506641     
0.00000000000003700000        0.392743        -0.504329         0.151406         -0.502503     
0.00000000000003800000        0.376682        -0.499648         0.135345         -0.497822     
0.00000000000003900000        0.361246        -0.494475         0.119909         -0.492649     
0.00000000000004000000        0.346436        -0.488860         0.105099         -0.487033     
0.00000000000004100000        0.332256        -0.482850         0.090919         -0.481024     
0.00000000000004200000        0.318701        -0.476493         0.077364         -0.474667     
0.00000000000004300000        0.305767        -0.469832         0.064430         -0.468006     
0.00000000000004400000        0.293446        -0.462909         0.052109         -0.461082     
0.00000000000004500000        0.281728        -0.455763         0.040391         -0.453937     
0.00000000000004600000        0.270601        -0.448432         0.029264         -0.446605     
0.00000000000004700000        0.260052        -0.440950         0.018715         -0.439124     
0.00000000000004800000        0.250066        -0.433350         0.008729         -0.431524     
0.00000000000004900000        0.240626        -0.425663         -0.000711         -0.423837     
0.00000000000005000000        0.231714        -0.417916         -0.009623         -0.416090     
0.00000000000005100000        0.223314        -0.410134         -0.018023         -0.408308     
0.00000000000005200000        0.215407        -0.402342         -0.025930         -0.400516     
0.00000000000005300000        0.207972        -0.394561         -0.033365         -0.392735     
0.00000000000005400000        0.200992        -0.386810         -0.040345         -0.384984     
0.00000000000005500000        0.194447        -0.379106         -0.046890         -0.377280     
0.00000000000005600000        0.188317        -0.371466         -0.053020         -0.369639     
0.00000000000005700000        0.182583        -0.363902         -0.058754         -0.362076     
0.00000000000005800000        0.177226        -0.356428         -0.064111         -0.354602     
0.00000000000005900000        0.172227        -0.349054         -0.069110         -0.347228     
0.00000000000006000000        0.167568        -0.341790         -0.073769         -0.339964     
0.00000000000006100000        0.163232        -0.334643         -0.078105         -0.332817     
0.00000000000006200000        0.159200        -0.327620         -0.082137         -0.325794     
0.00000000000006300000        0.155456        -0.320728         -0.085881         -0.318901     
0.00000000000006400000        0.151983        -0.313969         -0.089354         -0.312143     
0.00000000000006500000        0.148767        -0.307349         -0.092570         -0.305523     
0.00000000000006600000        0.145791        -0.300871         -0.095546         -0.299044     
0.00000000000006700000        0.143041        -0.294535         -0.098296         -0.292709     
0.00000000000006800000        0.140503        -0.288344         -0.100834         -0.286518     
0.00000000000006900000        0.138165        -0.282298         -0.103172         -0.280472     
0.00000000000007000000        0.136013        -0.276398         -0.105324         -0.274571     
0.00000000000007100000        0.134036        -0.270643         -0.107301         -0.268816     
0.00000000000007200000        0.132222        -0.265032         -0.109115         -0.263205     
0.00000000000007300000        0.130560        -0.259564         -0.110777         -0.257738     
0.00000000000007400000        0.129040        -0.254239         -0.112297         -0.252412     
0.00000000000007500000        0.127652        -0.249053         -0.113685         -0.247226     
0.00000000000007600000        0.126388        -0.244005         -0.114949         -0.242179     
0.00000000000007700000        0.125238        -0.239093         -0.116099         -0.237266     
0.00000000000007800000        0.124194        -0.234314         -0.117143         -0.232488     
0.00000000000007900000        0.123249        -0.229666         -0.118088         -0.227839     
0.00000000000008000000        0.122395        -0.225146         -0.118942         -0.223319     
0.00000000000008100000        0.121626        -0.220751         -0.119711         -0.218925     
0.00000000000008200000        0.120935        -0.216479         -0.120402         -0.214652     
0.00000000000008300000        0.120316        -0.212326         -0.121021         -0.210499     
0.00000000000008400000        0.119763        -0.208289         -0.121574         -0.206463     
0.00000000000008500000        0.119272        -0.204367         -0.122065         -0.202540     
0.00000000000008600000        0.118836        -0.200555         -0.122501         -0.198728     
0.00000000000008700000        0.118452        -0.196850         -0.122885         -0.195024     
0.00000000000008800000        0.118115        -0.193251         -0.123222         -0.191424     
0.00000000000008900000        0.117820        -0.189753         -0.123517         -0.187927     
0.00000000000009000000        0.117565        -0.186354         -0.123772         -0.184528     
0.00000000000009100000        0.117345        -0.183051         -0.123992         -0.181225     
0.00000000000009200000        0.117156        -0.179841         -0.124181         -0.178015     
0.00000000000009300000        0.116997        -0.176722         -0.124340         -0.174896     
0.00000000000009400000        0.116862        -0.173690         -0.124475         -0.171864     
0.00000000000009500000        0.116751        -0.170744         -0.124586         -0.168917     
0.00000000000009600000        0.116659        -0.167879         -0.124678         -0.166053     
0.00000000000009700000        0.116586        -0.165094         -0.124751         -0.163268     
0.00000000000009800000        0.116527        -0.162387         -0.124810         -0.160561     
0.00000000000009900000        0.116481        -0.159754         -0.124856         -0.157928     
0.00000000000010000000        0.116446        -0.157194         -0.124891         -0.155367     
0.00000000000010100000        0.116420        -0.154703         -0.124917         -0.152877     
0.00000000000010200000        0.116401        -0.152280         -0.124936         -0.150453     
0.00000000000010300000        0.116387        -0.149922         -0.124950         -0.148095     
0.00000000000010400000        0.116377        -0.147627         -0.124960         -0.145800     
0.00000000000010500000        0.116368        -0.145392         -0.124969         -0.143566     
0.00000000000010600000        0.116361        -0.143216         -0.124976         -0.141390     
0.00000000000010700000        0.116352        -0.141097         -0.124985         -0.139271     
0.00000000000010800000        0.116342        -0.139032         -0.124995         -0.137206     
0.00000000000010900000        0.116328        -0.137019         -0.125009         -0.135193     
0.00000000000011000000        0.116309        -0.135056         -0.125028         -0.133230     
0.00000000000011100000        0.116285        -0.133142         -0.125052         -0.131316     
0.00000000000011200000        0.116255        -0.131274         -0.125082         -0.129448     
0.00000000000011300000        0.116217        -0.129450         -0.125120         -0.127624     
0.00000000000011400000        0.116170        -0.127669         -0.125167         -0.125842     
0.00000000000011500000        0.116115        -0.125928         -0.125222         -0.124101     
0.00000000000011600000        0.116049        -0.124225         -0.125288         -0.122399     
0.00000000000011700000        0.115973        -0.122560         -0.125364         -0.120733     
0.00000000000011800000        0.115886        -0.120929         -0.125451         -0.119103     
0.00000000000011900000        0.115787        -0.119332         -0.125550         -0.117506     
0.00000000000012000000        0.115676        -0.117766         -0.125661         -0.115940     
0.00000000000012100000        0.115552        -0.116230         -0.125785         -0.114404     
0.00000000000012200000        0.115414        -0.114722         -0.125923         -0.112896     
0.00000000000012300000        0.115264        -0.113240         -0.126073         -0.111414     
0.00000000000012400000        0.115100        -0.111783         -0.126237         -0.109957     
0.00000000000012500000        0.114922        -0.110349         -0.126415         -0.108523     
0.00000000000012600000        0.114730        -0.108937         -0.126607         -0.107110     
0.00000000000012700000        0.114523        -0.107544         -0.126814         -0.105718     
0.00000000000012800000        0.114303        -0.106170         -0.127034         -0.104343     
0.00000000000012900000        0.114068        -0.104812         -0.127269         -0.102986     
0.00000000000013000000        0.113820        -0.103469         -0.127517         -0.101643     
0.00000000000013100000        0.113557        -0.102141         -0.127780         -0.100315     
0.00000000000013200000        0.113281        -0.100825         -0.128056         -0.098998     
0.00000000000013300000        0.112991        -0.099520         -0.128346         -0.097693     
0.00000000000013400000        0.112688        -0.098224         -0.128649         -0.096398     
0.00000000000013500000        0.112371        -0.096937         -0.128966         -0.095111     
0.00000000000013600000        0.112043        -0.095657         -0.129294         -0.093831     
0.00000000000013700000        0.111702        -0.094383         -0.129635         -0.092557     
0.00000000000013800000        0.111349        -0.093114         -0.129988         -0.091288     
0.00000000000013900000        0.110986        -0.091849         -0.130351         -0.090022     
0.00000000000014000000        0.110611        -0.090586         -0.130726         -0.088759     
0.00000000000014100000        0.110227        -0.089325         -0.131110         -0.087498     
0.00000000000014200000        0.109832        -0.088064         -0.131505         -0.086238     
0.00000000000014300000        0.109430        -0.086803         -0.131907         -0.084977     
0.00000000000014400000        0.109018        -0.085541         -0.132319         -0.083715     
0.00000000000014500000        0.108600        -0.084277         -0.132737         -0.082451     
0.00000000000014600000        0.108174        -0.083011         -0.133163         -0.081185     
0.00000000000014700000        0.107742        -0.081741         -0.133595         -0.079915     
0.00000000000014800000        0.107305        -0.080467         -0.134032         -0.078641     
0.00000000000014900000        0.106863        -0.079189         -0.134474         -0.077363     
0.00000000000015000000        0.106418        -0.077906         -0.134920         -0.076080     
0.00000000000015100000        0.105968        -0.076618         -0.135369         -0.074791     
0.00000000000015200000        0.105517        -0.075323         -0.135820         -0.073497     
0.00000000000015300000        0.105063        -0.074023         -0.136274         -0.072196     
0.00000000000015400000        0.104609        -0.072715         -0.136728         -0.070889     
0.00000000000015500000        0.104154        -0.071402         -0.137183         -0.069575     
0.00000000000015600000        0.103700        -0.070081         -0.137637         -0.068254     
0.00000000000015700000        0.103246        -0.068753         -0.138091         -0.066927     
0.00000000000015800000        0.102794        -0.067418         -0.138543         -0.065591     
0.00000000000015900000        0.102345        -0.066075         -0.138992         -0.064249     
0.00000000000016000000        0.101898        -0.064726         -0.139439         -0.062899     
0.00000000000016100000        0.101455        -0.063369         -0.139882         -0.061542     
0.00000000000016200000        0.101016        -0.062004         -0.140321         -0.060178     
0.00000000000016300000        0.100582        -0.060633         -0.140755         -0.058807     
0.00000000000016400000        0.100153        -0.059254         -0.141184         -0.057428     
0.00000000000016500000        0.099729        -0.057869         -0.141608         -0.056042     
0.00000000000016600000        0.099311        -0.056476         -0.142026         -0.054650     
0.00000000000016700000        0.098900        -0.055077         -0.142437         -0.053251     
0.00000000000016800000        0.098496        -0.053672         -0.142841         -0.051845     
0.00000000000016900000        0.098099        -0.052260         -0.143238         -0.050433     
0.00000000000017000000        0.097709        -0.050842         -0.143628         -0.049015     
0.00000000000017100000        0.097327        -0.049418         -0.144010         -0.047591     
0.00000000000017200000        0.096953        -0.047988         -0.144384         -0.046162     
0.00000000000017300000        0.096587        -0.046553         -0.144750         -0.044726     
0.00000000000017400000        0.096230        -0.045112         -0.145107         -0.043286     
0.00000000000017500000        0.095881        -0.043667         -0.145456         -0.041840     
0.00000000000017600000        0.095541        -0.042216         -0.145796         -0.040390     
0.00000000000017700000        0.095210        -0.040761         -0.146127         -0.038935     
0.00000000000017800000        0.094888        -0.039302         -0.146449         -0.037476     
0.00000000000017900000        0.094575        -0.037838         -0.146762         -0.036012     
0.00000000000018000000        0.094271        -0.036370         -0.147066         -0.034544     
0.00000000000018100000        0.093976        -0.034899         -0.147361         -0.033072     
0.00000000000018200000        0.093690        -0.033423         -0.147647         -0.031597     
0.00000000000018300000        0.093413        -0.031944         -0.147924         -0.030118     
0.00000000000018400000        0.093146        -0.030462         -0.148191         -0.028635     
0.00000000000018500000        0.092887        -0.028976         -0.148450         -0.027149     
0.00000000000018600000        0.092637        -0.027486         -0.148700         -0.025660     
0.00000000000018700000        0.092396        -0.025994         -0.148941         -0.024168     
0.00000000000018800000        0.092164        -0.024498         -0.149173         -0.022672     
0.00000000000018900000        0.091940        -0.022999         -0.149397         -0.021173     
0.00000000000019000000        0.091726        -0.021497         -0.149611         -0.019671     
0.00000000000019100000        0.091519        -0.019992         -0.149818         -0.018166     
0.00000000000019200000        0.091322        -0.018484         -0.150015         -0.016658     
0.00000000000019300000        0.091132        -0.016972         -0.150205         -0.015146     
0.00000000000019400000        0.090951        -0.015458         -0.150386         -0.013631     
0.00000000000019500000        0.090778        -0.013939         -0.150559         -0.012113     
0.00000000000019600000        0.090613        -0.012418         -0.150724         -0.010592     
0.00000000000019700000        0.090456        -0.010893         -0.150881         -0.009066     
0.00000000000019800000        0.090307        -0.009364         -0.151030         -0.007538     
0.00000000000019900000        0.090166        -0.007831         -0.151171         -0.006005     
0.00000000000020000000        0.090033        -0.006294         -0.151304         -0.004468     
0.00000000000020100000        0.089908        -0.004753         -0.151429         -0.002927     
0.00000000000020200000        0.089790        -0.003208         -0.151547         -0.001382     
0.00000000000020300000        0.089680        -0.001658         -0.151657         0.000168     
0.00000000000020400000        0.089577        -0.000103         -0.151760         0.001723     
0.00000000000020500000        0.089483        0.001457         -0.151854         0.003283     
0.00000000000020600000        0.089396        0.003022         -0.151941         0.004849     
0.00000000000020700000        0.089316        0.004593         -0.152021         0.006420     
0.00000000000020800000        0.089245        0.006170         -0.152092         0.007997     
0.00000000000020900000        0.089181        0.007754         -0.152156         0.009580     
0.00000000000021000000        0.089126        0.009343         -0.152211         0.011170     
0.00000000000021100000        0.089078        0.010940         -0.152259         0.012766     
0.00000000000021200000        0.089039        0.012544         -0.152298         0.014370     
0.00000000000021300000        0.089007        0.014155         -0.152330         0.015982     
0.00000000000021400000        0.088985        0.015775         -0.152352         0.017601     
0.00000000000021500000        0.088971        0.017402         -0.152366         0.019228     
0.00000000000021600000        0.088966        0.019038         -0.152371         0.020864     
0.00000000000021700000        0.088970        0.020683         -0.152367         0.022509     
0.00000000000021800000        0.088984        0.022337         -0.152353         0.024164     
0.00000000000021900000        0.089007        0.024001         -0.152330         0.025828     
0.00000000000022000000        0.089041        0.025675         -0.152296         0.027501     
0.00000000000022100000        0.089085        0.027359         -0.152252         0.029186     
0.00000000000022200000        0.089140        0.029054         -0.152197         0.030881     
0.00000000000022300000        0.089206        0.030760         -0.152131         0.032587     
0.00000000000022400000        0.089284        0.032478         -0.152053         0.034304     
0.00000000000022500000        0.089374        0.034207         -0.151963         0.036033     
0.00000000000022600000        0.089477        0.035948         -0.151860         0.037775     
0.00000000000022700000        0.089593        0.037702         -0.151744         0.039528     
0.00000000000022800000        0.089723        0.039468         -0.151614         0.041295     
0.00000000000022900000        0.089867        0.041248         -0.151470         0.043074     
0.00000000000023000000        0.090027        0.043040         -0.151310         0.044867     
0.00000000000023100000        0.090202        0.044846         -0.151135         0.046673     
0.00000000000023200000        0.090394        0.046666         -0.150943         0.048493     
0.00000000000023300000        0.090603        0.048500         -0.150734         0.050326     
0.00000000000023400000        0.090831        0.050348         -0.150506         0.052174     
0.00000000000023500000        0.091077        0.052210         -0.150260         0.054037     
0.00000000000023600000        0.091342        0.054087         -0.149995         0.055913     
0.00000000000023700000        0.091629        0.055978         -0.149708         0.057804     
0.00000000000023800000        0.091937        0.057883         -0.149400         0.059710     
0.00000000000023900000        0.092267        0.059804         -0.149070         0.061630     
0.00000000000024000000        0.092621        0.061738         -0.148716         0.063564     
0.00000000000024100000        0.092999        0.063687         -0.148338         0.065513     
0.00000000000024200000        0.093402        0.065650         -0.147935         0.067477     
0.00000000000024300000        0.093832        0.067628         -0.147505         0.069454     
0.00000000000024400000        0.094290        0.069619         -0.147047         0.071445     
0.00000000000024500000        0.094776        0.071623         -0.146561         0.073450     
0.00000000000024600000        0.095292        0.073641         -0.146045         0.075468     
0.00000000000024700000        0.095839        0.075672         -0.145498         0.077498     
0.00000000000024800000        0.096418        0.077715         -0.144919         0.079541     
0.00000000000024900000        0.097030        0.079769         -0.144307         0.081595     
0.00000000000025000000        0.097677        0.081835         -0.143660         0.083661     
0.00000000000025100000        0.098358        0.083911         -0.142979         0.085737     
0.00000000000025200000        0.099077        0.085996         -0.142260         0.087822     
0.00000000000025300000        0.099833        0.088090         -0.141504         0.089916     
0.00000000000025400000        0.100627        0.090192         -0.140710         0.092018     
0.00000000000025500000        0.101462        0.092301         -0.139875         0.094127     
0.00000000000025600000        0.102337        0.094415         -0.139000         0.096241     
0.00000000000025700000        0.103255        0.096533         -0.138082         0.098360     
0.00000000000025800000        0.104215        0.098655         -0.137122         0.100482     
0.00000000000025900000        0.105219        0.100779         -0.136119         0.102605     
0.00000000000026000000        0.106267        0.102903         -0.135070         0.104730     
0.00000000000026100000        0.107361        0.105026         -0.133976         0.106853     
0.00000000000026200000        0.108501        0.107147         -0.132836         0.108973     
0.00000000000026300000        0.109688        0.109263         -0.131649         0.111089     
0.00000000000026400000        0.110922        0.111373         -0.130415         0.113199     
0.00000000000026500000        0.112205        0.113475         -0.129132         0.115302     
0.00000000000026600000        0.113536        0.115568         -0.127801         0.117394     
0.00000000000026700000        0.114915        0.117649         -0.126422         0.119476     
0.00000000000026800000        0.116343        0.119717         -0.124994         0.121543     
0.00000000000026900000        0.117820        0.121769         -0.123517         0.123596     
0.00000000000027000000        0.119346        0.123804         -0.121991         0.125631     
0.00000000000027100000        0.120921        0.125820         -0.120416         0.127646     
0.00000000000027200000        0.122544        0.127814         -0.118793         0.129640     
0.00000000000027300000        0.124216        0.129784         -0.117121         0.131611     
0.00000000000027400000        0.125935        0.131729         -0.115402         0.133556     
0.00000000000027500000        0.127701        0.133646         -0.113636         0.135473     
0.00000000000027600000        0.129513        0.135534         -0.111824         0.137360     
0.00000000000027700000        0.131370        0.137389         -0.109967         0.139216     
0.00000000000027800000        0.133272        0.139211         -0.108065         0.141037     
0.00000000000027900000        0.135216        0.140997         -0.106121         0.142824     
0.00000000000028000000        0.137202        0.142746         -0.104135         0.144572     
0.00000000000028100000        0.139228        0.144456         -0.102109         0.146282     
0.00000000000028200000        0.141293        0.146124         -0.100044         0.147950     
0.00000000000028300000        0.143395        0.147750         -0.097942         0.149576     
0.00000000000028400000        0.145532        0.149332         -0.095805         0.151158     
0.00000000000028500000        0.147702        0.150868         -0.093635         0.152695     
0.00000000000028600000        0.149904        0.152358         -0.091433         0.154184     
0.00000000000028700000        0.152134        0.153800         -0.089203         0.155626     
0.00000000000028800000        0.154392        0.155192         -0.086945         0.157019     
0.00000000000028900000        0.156675        0.156535         -0.084662         0.158362     
0.00000000000029000000        0.158979        0.157828         -0.082358         0.159654     
0.00000000000029100000        0.161304        0.159069         -0.080033         0.160896     
0.00000000000029200000        0.163647        0.160259         -0.077690         0.162086     
0.00000000000029300000        0.166005        0.161398         -0.075332         0.163224     
0.00000000000029400000        0.168377        0.162484         -0.072960         0.164310     
0.00000000000029500000        0.170758        0.163519         -0.070579         0.165345     
0.00000000000029600000        0.173148        0.164502         -0.068189         0.166329     
0.00000000000029700000        0.175544        0.165434         -0.065793         0.167261     
0.00000000000029800000        0.177943        0.166316         -0.063394         0.168143     
0.00000000000029900000        0.180343        0.167148         -0.060994         0.168975     
0.00000000000030000000        0.182742        0.167931         -0.058595         0.169758     
0.00000000000030100000        0.185138        0.168667         -0.056199         0.170493     
0.00000000000030200000        0.187529        0.169356         -0.053808         0.171182     
0.00000000000030300000        0.189912        0.169999         -0.051425         0.171825     
0.00000000000030400000        0.192287        0.170599         -0.049050         0.172425     
0.00000000000030500000        0.194651        0.171156         -0.046686         0.172982     
0.00000000000030600000        0.197002        0.171673         -0.044335         0.173499     
0.00000000000030700000        0.199340        0.172151         -0.041998         0.173977     
0.00000000000030800000        0.201662        0.172592         -0.039675         0.174419     
0.00000000000030900000        0.203968        0.172998         -0.037369         0.174825     
0.00000000000031000000        0.206256        0.173372         -0.035081         0.175198     