# Time    F_t_Re (Classical)      F_t_Im (Classical)       F_t_Re_erf       F_t_Im_erf  
0.00000000000000000000        1.000000        0.000000         1.000000         0.000000     
0.00000000000000100000        0.998005        0.000000         0.998005         0.000000     
0.00000000000000200000        0.992046        0.000000         0.992046         0.000000     
0.00000000000000300000        0.982195        0.000000         0.982195         0.000000     
0.00000000000000400000        0.968572        0.000000         0.968572         0.000000     
0.00000000000000500000        0.951341        0.000000         0.951341         0.000000     
0.00000000000000600000        0.930708        0.000000         0.930708         0.000000     
0.00000000000000700000        0.906916        0.000000         0.906916         0.000000     
0.00000000000000800000        0.880238        0.000000         0.880238         0.000000     
0.00000000000000900000        0.850977        0.000000         0.850977         0.000000     
0.00000000000001000000        0.819452        0.000000         0.819452         0.000000     
0.00000000000001100000        0.786003        0.000000         0.786003         0.000000     
0.00000000000001200000        0.750973        0.000000         0.750973         0.000000     
0.00000000000001300000        0.714712        0.000000         0.714712         0.000000     
0.00000000000001400000        0.677566        0.000000         0.677566         0.000000     
0.00000000000001500000        0.639871        0.000000         0.639871         0.000000     
0.00000000000001600000        0.601953        0.000000         0.601953         0.000000     
0.00000000000001700000        0.564119        0.000000         0.564119         0.000000     
0.00000000000001800000        0.526652        0.000000         0.526652         0.000000     
0.00000000000001900000        0.489817        0.000000         0.489817         0.000000     
0.00000000000002000000        0.453846        0.000000         0.453846         0.000000     
0.00000000000002100000        0.418948        0.000000         0.418948         0.000000     
0.00000000000002200000        0.385299        0.000000         0.385299         0.000000     
0.00000000000002300000        0.353047        0.000000         0.353047         0.000000     
0.00000000000002400000        0.322313        0.000000         0.322313         0.000000     
0.00000000000002500000        0.293187        0.000000         0.293187         0.000000     
0.00000000000002600000        0.265732        0.000000         0.265732         0.000000     
0.00000000000002700000        0.239989        0.000000         0.239989         0.000000     
0.00000000000002800000        0.215972        0.000000         0.215972         0.000000     
0.00000000000002900000        0.193676        0.000000         0.193676         0.000000     
0.00000000000003000000        0.173078        0.000000         0.173078         0.000000     
0.00000000000003100000        0.154138        0.000000         0.154138         0.000000     
0.00000000000003200000        0.136801        0.000000         0.136801         0.000000     
0.00000000000003300000        0.121005        0.000000         0.121005         0.000000     
0.00000000000003400000        0.106674        0.000000         0.106674         0.000000     
0.00000000000003500000        0.093729        0.000000         0.093729         0.000000     
0.00000000000003600000        0.082085        0.000000         0.082085         0.000000     
0.00000000000003700000        0.071654        0.000000         0.071654         0.000000     
0.00000000000003800000        0.062349        0.000000         0.062349         0.000000     
0.00000000000003900000        0.054080        0.000000         0.054080         0.000000     
0.00000000000004000000        0.046761        0.000000         0.046761         0.000000     
0.00000000000004100000        0.040307        0.000000         0.040307         0.000000     
0.00000000000004200000        0.034637        0.000000         0.034637         0.000000     
0.00000000000004300000        0.029676        0.000000         0.029676         0.000000     
0.00000000000004400000        0.025349        0.000000         0.025349         0.000000     
0.00000000000004500000        0.021589        0.000000         0.021589         0.000000     
0.00000000000004600000        0.018333        0.000000         0.018333         0.000000     
0.00000000000004700000        0.015524        0.000000         0.015524         0.000000     
0.00000000000004800000        0.013108        0.000000         0.013108         0.000000     
0.00000000000004900000        0.011037        0.000000         0.011037         0.000000     
0.00000000000005000000        0.009267        0.000000         0.009267         0.000000     
0.00000000000005100000        0.007761        0.000000         0.007761         0.000000     
0.00000000000005200000        0.006481        0.000000         0.006481         0.000000     
0.00000000000005300000        0.005398        0.000000         0.005398         0.000000     
0.00000000000005400000        0.004485        0.000000         0.004485         0.000000     
0.00000000000005500000        0.003716        0.000000         0.003716         0.000000     
0.00000000000005600000        0.003072        0.000000         0.003072         0.000000     
0.00000000000005700000        0.002532        0.000000         0.002532         0.000000     
0.00000000000005800000        0.002083        0.000000         0.002083         0.000000     
0.00000000000005900000        0.001709        0.000000         0.001709         0.000000     
0.00000000000006000000        0.001399        0.000000         0.001399         0.000000     
0.00000000000006100000        0.001142        0.000000         0.001142         0.000000     
0.00000000000006200000        0.000930        0.000000         0.000930         0.000000     
0.00000000000006300000        0.000756        0.000000         0.000756         0.000000     
0.00000000000006400000        0.000613        0.000000         0.000613         0.000000     
0.00000000000006500000        0.000496        0.000000         0.000496         0.000000     
0.00000000000006600000        0.000401        0.000000         0.000401         0.000000     
0.00000000000006700000        0.000323        0.000000         0.000323         0.000000     
0.00000000000006800000        0.000259        0.000000         0.000259         0.000000     
0.00000000000006900000        0.000208        0.000000         0.000208         0.000000     
0.00000000000007000000        0.000167        0.000000         0.000167         0.000000     
0.00000000000007100000        0.000133        0.000000         0.000133         0.000000     
0.00000000000007200000        0.000106        0.000000         0.000106         0.000000     
0.00000000000007300000        0.000084        0.000000         0.000084         0.000000     
0.00000000000007400000        0.000067        0.000000         0.000067         0.000000     
0.00000000000007500000        0.000053        0.000000         0.000053         0.000000     
0.00000000000007600000        0.000042        0.000000         0.000042         0.000000     
0.00000000000007700000        0.000033        0.000000         0.000033         0.000000     
0.00000000000007800000        0.000026        0.000000         0.000026         0.000000     
0.00000000000007900000        0.000021        0.000000         0.000021         0.000000     
0.00000000000008000000        0.000016        0.000000         0.000016         0.000000     
0.00000000000008100000        0.000013        0.000000         0.000013         0.000000     
0.00000000000008200000        0.000010        0.000000         0.000010         0.000000     
0.00000000000008300000        0.000008        0.000000         0.000008         0.000000     
0.00000000000008400000        0.000006        0.000000         0.000006         0.000000     
0.00000000000008500000        0.000005        0.000000         0.000005         0.000000     
0.00000000000008600000        0.000004        0.000000         0.000004         0.000000     
0.00000000000008700000        0.000003        0.000000         0.000003         0.000000     
0.00000000000008800000        0.000002        0.000000         0.000002         0.000000     
0.00000000000008900000        0.000002        0.000000         0.000002         0.000000     
0.00000000000009000000        0.000001        0.000000         0.000001         0.000000     
0.00000000000009100000        0.000001        0.000000         0.000001         0.000000     
0.00000000000009200000        0.000001        0.000000         0.000001         0.000000     
0.00000000000009300000        0.000001        0.000000         0.000001         0.000000     
0.00000000000009400000        0.000000        0.000000         0.000000         0.000000     
0.00000000000009500000        0.000000        0.000000         0.000000         0.000000     
0.00000000000009600000        0.000000        0.000000         0.000000         0.000000     
0.00000000000009700000        0.000000        0.000000         0.000000         0.000000     
0.00000000000009800000        0.000000        0.000000         0.000000         0.000000     
0.00000000000009900000        0.000000        0.000000         0.000000         0.000000     
0.00000000000010000000        0.000000        0.000000         0.000000         0.000000     
0.00000000000010100000        0.000000        0.000000         0.000000         0.000000     
0.00000000000010200000        0.000000        0.000000         0.000000         0.000000     
0.00000000000010300000        0.000000        0.000000         0.000000         0.000000     
0.00000000000010400000        0.000000        0.000000         0.000000         0.000000     
0.00000000000010500000        0.000000        0.000000         0.000000         0.000000     
0.00000000000010600000        0.000000        0.000000         0.000000         0.000000     
0.00000000000010700000        0.000000        0.000000         0.000000         0.000000     
0.00000000000010800000        0.000000        0.000000         0.000000         0.000000     
0.00000000000010900000        0.000000        0.000000         0.000000         0.000000     
0.00000000000011000000        0.000000        0.000000         0.000000         0.000000     
0.00000000000011100000        0.000000        0.000000         0.000000         0.000000     
0.00000000000011200000        0.000000        0.000000         0.000000         0.000000     
0.00000000000011300000        0.000000        0.000000         0.000000         0.000000     
0.00000000000011400000        0.000000        0.000000         0.000000         0.000000     
0.00000000000011500000        0.000000        0.000000         0.000000         0.000000     
0.00000000000011600000        0.000000        0.000000         0.000000         0.000000     
0.00000000000011700000        0.000000        0.000000         0.000000         0.000000     
0.00000000000011800000        0.000000        0.000000         0.000000         0.000000     
0.00000000000011900000        0.000000        0.000000         0.000000         0.000000     
0.00000000000012000000        0.000000        0.000000         0.000000         0.000000     
0.00000000000012100000        0.000000        0.000000         0.000000         0.000000     
0.00000000000012200000        0.000000        0.000000         0.000000         0.000000     
0.00000000000012300000        0.000000        0.000000         0.000000         0.000000     
0.00000000000012400000        0.000000        0.000000         0.000000         0.000000     
0.00000000000012500000        0.000000        0.000000         0.000000         0.000000     
0.00000000000012600000        0.000000        0.000000         0.000000         0.000000     
0.00000000000012700000        0.000000        0.000000         0.000000         0.000000     
0.00000000000012800000        0.000000        0.000000         0.000000         0.000000     
0.00000000000012900000        0.000000        0.000000         0.000000         0.000000     
0.00000000000013000000        0.000000        0.000000         0.000000         0.000000     
0.00000000000013100000        0.000000        0.000000         0.000000         0.000000     
0.00000000000013200000        0.000000        0.000000         0.000000         0.000000     
0.00000000000013300000        0.000000        0.000000         0.000000         0.000000     
0.00000000000013400000        0.000000        0.000000         0.000000         0.000000     
0.00000000000013500000        0.000000        0.000000         0.000000         0.000000     
0.00000000000013600000        0.000000        0.000000         0.000000         0.000000     
0.00000000000013700000        0.000000        0.000000         0.000000         0.000000     
0.00000000000013800000        0.000000        0.000000         0.000000         0.000000     
0.00000000000013900000        0.000000        0.000000         0.000000         0.000000     
0.00000000000014000000        0.000000        0.000000         0.000000         0.000000     
0.00000000000014100000        0.000000        0.000000         0.000000         0.000000     
0.00000000000014200000        0.000000        0.000000         0.000000         0.000000     
0.00000000000014300000        0.000000        0.000000         0.000000         0.000000     
0.00000000000014400000        0.000000        0.000000         0.000000         0.000000     
0.00000000000014500000        0.000000        0.000000         0.000000         0.000000     
0.00000000000014600000        0.000000        0.000000         0.000000         0.000000     
0.00000000000014700000        0.000000        0.000000         0.000000         0.000000     
0.00000000000014800000        0.000000        0.000000         0.000000         0.000000     
0.00000000000014900000        0.000000        0.000000         0.000000         0.000000     
0.00000000000015000000        0.000000        0.000000         0.000000         0.000000     
0.00000000000015100000        0.000000        0.000000         0.000000         0.000000     
0.00000000000015200000        0.000000        0.000000         0.000000         0.000000     
0.00000000000015300000        0.000000        0.000000         0.000000         0.000000     
0.00000000000015400000        0.000000        0.000000         0.000000         0.000000     
0.00000000000015500000        0.000000        0.000000         0.000000         0.000000     
0.00000000000015600000        0.000000        0.000000         0.000000         0.000000     
0.00000000000015700000        0.000000        0.000000         0.000000         0.000000     
0.00000000000015800000        0.000000        0.000000         0.000000         0.000000     
0.00000000000015900000        0.000000        0.000000         0.000000         0.000000     
0.00000000000016000000        0.000000        0.000000         0.000000         0.000000     
0.00000000000016100000        0.000000        0.000000         0.000000         0.000000     
0.00000000000016200000        0.000000        0.000000         0.000000         0.000000     
0.00000000000016300000        0.000000        0.000000         0.000000         0.000000     
0.00000000000016400000        0.000000        0.000000         0.000000         0.000000     
0.00000000000016500000        0.000000        0.000000         0.000000         0.000000     
0.00000000000016600000        0.000000        0.000000         0.000000         0.000000     
0.00000000000016700000        0.000000        0.000000         0.000000         0.000000     
0.00000000000016800000        0.000000        0.000000         0.000000         0.000000     
0.00000000000016900000        0.000000        0.000000         0.000000         0.000000     
0.00000000000017000000        0.000000        0.000000         0.000000         0.000000     
0.00000000000017100000        0.000000        0.000000         0.000000         0.000000     
0.00000000000017200000        0.000000        0.000000         0.000000         0.000000     
0.00000000000017300000        0.000000        0.000000         0.000000         0.000000     
0.00000000000017400000        0.000000        0.000000         0.000000         0.000000     
0.00000000000017500000        0.000000        0.000000         0.000000         0.000000     
0.00000000000017600000        0.000000        0.000000         0.000000         0.000000     
0.00000000000017700000        0.000000        0.000000         0.000000         0.000000     
0.00000000000017800000        0.000000        0.000000         0.000000         0.000000     
0.00000000000017900000        0.000000        0.000000         0.000000         0.000000     
0.00000000000018000000        0.000000        0.000000         0.000000         0.000000     
0.00000000000018100000        0.000000        0.000000         0.000000         0.000000     
0.00000000000018200000        0.000000        0.000000         0.000000         0.000000     
0.00000000000018300000        0.000000        0.000000         0.000000         0.000000     
0.00000000000018400000        0.000000        0.000000         0.000000         0.000000     
0.00000000000018500000        0.000000        0.000000         0.000000         0.000000     
0.00000000000018600000        0.000000        0.000000         0.000000         0.000000     
0.00000000000018700000        0.000000        0.000000         0.000000         0.000000     
0.00000000000018800000        0.000000        0.000000         0.000000         0.000000     
0.00000000000018900000        0.000000        0.000000         0.000000         0.000000     
0.00000000000019000000        0.000000        0.000000         0.000000         0.000000     
0.00000000000019100000        0.000000        0.000000         0.000000         0.000000     
0.00000000000019200000        0.000000        0.000000         0.000000         0.000000     
0.00000000000019300000        0.000000        0.000000         0.000000         0.000000     
0.00000000000019400000        0.000000        0.000000         0.000000         0.000000     
0.00000000000019500000        0.000000        0.000000         0.000000         0.000000     
0.00000000000019600000        0.000000        0.000000         0.000000         0.000000     
0.00000000000019700000        0.000000        0.000000         0.000000         0.000000     
0.00000000000019800000        0.000000        0.000000         0.000000         0.000000     
0.00000000000019900000        0.000000        0.000000         0.000000         0.000000     
0.00000000000020000000        0.000000        0.000000         0.000000         0.000000     
0.00000000000020100000        0.000000        0.000000         0.000000         0.000000     
0.00000000000020200000        0.000000        0.000000         0.000000         0.000000     
0.00000000000020300000        0.000000        0.000000         0.000000         0.000000     
0.00000000000020400000        0.000000        0.000000         0.000000         0.000000     
0.00000000000020500000        0.000000        0.000000         0.000000         0.000000     
0.00000000000020600000        0.000000        0.000000         0.000000         0.000000     
0.00000000000020700000        0.000000        0.000000         0.000000         0.000000     
0.00000000000020800000        0.000000        0.000000         0.000000         0.000000     
0.00000000000020900000        0.000000        0.000000         0.000000         0.000000     
0.00000000000021000000        0.000000        0.000000         0.000000         0.000000     
0.00000000000021100000        0.000000        0.000000         0.000000         0.000000     
0.00000000000021200000        0.000000        0.000000         0.000000         0.000000     
0.00000000000021300000        0.000000        0.000000         0.000000         0.000000     
0.00000000000021400000        0.000000        0.000000         0.000000         0.000000     
0.00000000000021500000        0.000000        0.000000         0.000000         0.000000     
0.00000000000021600000        0.000000        0.000000         0.000000         0.000000     
0.00000000000021700000        0.000000        0.000000         0.000000         0.000000     
0.00000000000021800000        0.000000        0.000000         0.000000         0.000000     
0.00000000000021900000        0.000000        0.000000         -0.000000         0.000000     
0.00000000000022000000        0.000000        0.000000         -0.000000         0.000000     
0.00000000000022100000        0.000000        0.000000         -0.000000         0.000000     
0.00000000000022200000        0.000000        0.000000         -0.000000         0.000000     
0.00000000000022300000        0.000000        0.000000         -0.000000         0.000000     
0.00000000000022400000        0.000000        0.000000         -0.000000         0.000000     
0.00000000000022500000        0.000000        0.000000         -0.000000         0.000000     
0.00000000000022600000        0.000000        0.000000         -0.000000         0.000000     
0.00000000000022700000        0.000000        0.000000         -0.000000         0.000000     
0.00000000000022800000        0.000000        0.000000         -0.000000         0.000000     
0.00000000000022900000        0.000000        0.000000         -0.000000         0.000000     
0.00000000000023000000        0.000000        0.000000         -0.000000         0.000000     
0.00000000000023100000        0.000000        0.000000         -0.000000         0.000000     
0.00000000000023200000        0.000000        0.000000         -0.000000         0.000000     
0.00000000000023300000        0.000000        0.000000         -0.000000         0.000000     
0.00000000000023400000        0.000000        0.000000         -0.000000         0.000000     
0.00000000000023500000        0.000000        0.000000         -0.000000         0.000000     
0.00000000000023600000        0.000000        0.000000         -0.000000         0.000000     
0.00000000000023700000        0.000000        0.000000         -0.000000         0.000000     
0.00000000000023800000        0.000000        0.000000         -0.000000         0.000000     
0.00000000000023900000        0.000000        0.000000         -0.000000         0.000000     
0.00000000000024000000        0.000000        0.000000         -0.000000         0.000000     
0.00000000000024100000        0.000000        0.000000         -0.000000         0.000000     
0.00000000000024200000        0.000000        0.000000         -0.000000         0.000000     
0.00000000000024300000        0.000000        0.000000         -0.000000         0.000000     
0.00000000000024400000        0.000000        0.000000         -0.000000         0.000000     
0.00000000000024500000        0.000000        0.000000         -0.000000         0.000000     
0.00000000000024600000        0.000000        0.000000         -0.000000         0.000000     
0.00000000000024700000        0.000000        0.000000         -0.000000         0.000000     
0.00000000000024800000        0.000000        0.000000         -0.000000         0.000000     
0.00000000000024900000        0.000000        0.000000         -0.000000         0.000000     
0.00000000000025000000        0.000000        0.000000         -0.000000         0.000000     
0.00000000000025100000        0.000000        0.000000         -0.000000         0.000000     
0.00000000000025200000        0.000000        0.000000         -0.000000         0.000000     
0.00000000000025300000        0.000000        0.000000         -0.000000         0.000000     
0.00000000000025400000        0.000000        0.000000         -0.000000         0.000000     
0.00000000000025500000        0.000000        0.000000         -0.000000         0.000000     
0.00000000000025600000        0.000000        0.000000         -0.000000         0.000000     
0.00000000000025700000        0.000000        0.000000         -0.000000         0.000000     
0.00000000000025800000        0.000000        0.000000         -0.000000         0.000000     
0.00000000000025900000        0.000000        0.000000         -0.000000         0.000000     
0.00000000000026000000        0.000000        0.000000         -0.000000         0.000000     
0.00000000000026100000        0.000000        0.000000         -0.000000         0.000000     
0.00000000000026200000        0.000000        0.000000         -0.000000         0.000000     
0.00000000000026300000        0.000000        0.000000         -0.000000         0.000000     
0.00000000000026400000        0.000000        0.000000         -0.000000         0.000000     
0.00000000000026500000        0.000000        0.000000         -0.000000         0.000000     
0.00000000000026600000        0.000000        0.000000         -0.000000         0.000000     
0.00000000000026700000        0.000000        0.000000         -0.000000         0.000000     
0.00000000000026800000        0.000000        0.000000         -0.000000         0.000000     
0.00000000000026900000        0.000000        0.000000         -0.000000         0.000000     
0.00000000000027000000        0.000000        0.000000         -0.000000         0.000000     
0.00000000000027100000        0.000000        0.000000         -0.000000         0.000000     
0.00000000000027200000        0.000000        0.000000         -0.000000         0.000000     
0.00000000000027300000        0.000000        0.000000         -0.000000         0.000000     
0.00000000000027400000        0.000000        0.000000         -0.000000         0.000000     
0.00000000000027500000        0.000000        0.000000         -0.000000         0.000000     
0.00000000000027600000        0.000000        0.000000         -0.000000         0.000000     
0.00000000000027700000        0.000000        0.000000         -0.000000         0.000000     
0.00000000000027800000        0.000000        0.000000         -0.000000         0.000000     
0.00000000000027900000        0.000000        0.000000         -0.000000         0.000000     
0.00000000000028000000        0.000000        0.000000         -0.000000         0.000000     
0.00000000000028100000        0.000000        0.000000         -0.000000         0.000000     
0.00000000000028200000        0.000000        0.000000         -0.000000         0.000000     
0.00000000000028300000        0.000000        0.000000         -0.000000         0.000000     
0.00000000000028400000        0.000000        0.000000         -0.000000         0.000000     
0.00000000000028500000        0.000000        0.000000         -0.000000         0.000000     
0.00000000000028600000        0.000000        0.000000         -0.000000         0.000000     
0.00000000000028700000        0.000000        0.000000         -0.000000         0.000000     
0.00000000000028800000        0.000000        0.000000         -0.000000         0.000000     
0.00000000000028900000        0.000000        0.000000         -0.000000         0.000000     
0.00000000000029000000        0.000000        0.000000         -0.000000         0.000000     
0.00000000000029100000        0.000000        0.000000         -0.000000         0.000000     
0.00000000000029200000        0.000000        0.000000         -0.000000         0.000000     
0.00000000000029300000        0.000000        0.000000         -0.000000         0.000000     
0.00000000000029400000        0.000000        0.000000         -0.000000         0.000000     
0.00000000000029500000        0.000000        0.000000         -0.000000         0.000000     
0.00000000000029600000        0.000000        0.000000         -0.000000         0.000000     
0.00000000000029700000        0.000000        0.000000         -0.000000         0.000000     
0.00000000000029800000        0.000000        0.000000         -0.000000         0.000000     
0.00000000000029900000        0.000000        0.000000         -0.000000         0.000000     
0.00000000000030000000        0.000000        0.000000         -0.000000         0.000000     
0.00000000000030100000        0.000000        0.000000         -0.000000         0.000000     
0.00000000000030200000        0.000000        0.000000         -0.000000         0.000000     
0.00000000000030300000        0.000000        0.000000         -0.000000         0.000000     
0.00000000000030400000        0.000000        0.000000         -0.000000         0.000000     
0.00000000000030500000        0.000000        0.000000         -0.000000         0.000000     
0.00000000000030600000        0.000000        0.000000         -0.000000         0.000000     
0.00000000000030700000        0.000000        0.000000         -0.000000         0.000000     
0.00000000000030800000        0.000000        0.000000         -0.000000         0.000000     
0.00000000000030900000        0.000000        0.000000         -0.000000         0.000000     
0.00000000000031000000        0.000000        0.000000         -0.000000         0.000000     
0.00000000000031100000        0.000000        0.000000         -0.000000         0.000000     
0.00000000000031200000        0.000000        0.000000         -0.000000         0.000000     
0.00000000000031300000        0.000000        0.000000         -0.000000         0.000000     
0.00000000000031400000        0.000000        0.000000         -0.000000         0.000000     
0.00000000000031500000        0.000000        0.000000         -0.000000         0.000000     
0.00000000000031600000        0.000000        0.000000         -0.000000         0.000000     