# Time    F_t_Re (Classical)      F_t_Im (Classical)       F_t_Re_erf       F_t_Im_erf  
0.00000000000000000000        1.000000        0.000000         0.981546         0.000000     
0.00000000000000100000        0.999900        0.000000         0.981447         0.000000     
0.00000000000000200000        0.999601        0.000000         0.981147         0.000000     
0.00000000000000300000        0.999102        0.000000         0.980649         0.000000     
0.00000000000000400000        0.998405        0.000000         0.979951         0.000000     
0.00000000000000500000        0.997509        0.000000         0.979055         0.000000     
0.00000000000000600000        0.996416        0.000000         0.977962         0.000000     
0.00000000000000700000        0.995127        0.000000         0.976673         0.000000     
0.00000000000000800000        0.993642        0.000000         0.975189         0.000000     
0.00000000000000900000        0.991964        0.000000         0.973510         0.000000     
0.00000000000001000000        0.990093        0.000000         0.971640         0.000000     
0.00000000000001100000        0.988032        0.000000         0.969579         0.000000     
0.00000000000001200000        0.985783        0.000000         0.967329         0.000000     
0.00000000000001300000        0.983346        0.000000         0.964893         0.000000     
0.00000000000001400000        0.980726        0.000000         0.962272         0.000000     
0.00000000000001500000        0.977923        0.000000         0.959469         0.000000     
0.00000000000001600000        0.974941        0.000000         0.956487         0.000000     
0.00000000000001700000        0.971781        0.000000         0.953328         0.000000     
0.00000000000001800000        0.968448        0.000000         0.949994         0.000000     
0.00000000000001900000        0.964943        0.000000         0.946490         0.000000     
0.00000000000002000000        0.961270        0.000000         0.942817         0.000000     
0.00000000000002100000        0.957432        0.000000         0.938979         0.000000     
0.00000000000002200000        0.953432        0.000000         0.934979         0.000000     
0.00000000000002300000        0.949274        0.000000         0.930821         0.000000     
0.00000000000002400000        0.944961        0.000000         0.926507         0.000000     
0.00000000000002500000        0.940497        0.000000         0.922043         0.000000     
0.00000000000002600000        0.935884        0.000000         0.917431         0.000000     
0.00000000000002700000        0.931128        0.000000         0.912675         0.000000     
0.00000000000002800000        0.926232        0.000000         0.907779         0.000000     
0.00000000000002900000        0.921200        0.000000         0.902746         0.000000     
0.00000000000003000000        0.916035        0.000000         0.897582         0.000000     
0.00000000000003100000        0.910742        0.000000         0.892289         0.000000     
0.00000000000003200000        0.905325        0.000000         0.886871         0.000000     
0.00000000000003300000        0.899788        0.000000         0.881334         0.000000     
0.00000000000003400000        0.894135        0.000000         0.875681         0.000000     
0.00000000000003500000        0.888369        0.000000         0.869916         0.000000     
0.00000000000003600000        0.882497        0.000000         0.864043         0.000000     
0.00000000000003700000        0.876521        0.000000         0.858067         0.000000     
0.00000000000003800000        0.870445        0.000000         0.851992         0.000000     
0.00000000000003900000        0.864275        0.000000         0.845821         0.000000     
0.00000000000004000000        0.858013        0.000000         0.839560         0.000000     
0.00000000000004100000        0.851665        0.000000         0.833212         0.000000     
0.00000000000004200000        0.845235        0.000000         0.826781         0.000000     
0.00000000000004300000        0.838726        0.000000         0.820272         0.000000     
0.00000000000004400000        0.832143        0.000000         0.813689         0.000000     
0.00000000000004500000        0.825489        0.000000         0.807036         0.000000     
0.00000000000004600000        0.818770        0.000000         0.800317         0.000000     
0.00000000000004700000        0.811989        0.000000         0.793535         0.000000     
0.00000000000004800000        0.805150        0.000000         0.786696         0.000000     
0.00000000000004900000        0.798256        0.000000         0.779803         0.000000     
0.00000000000005000000        0.791312        0.000000         0.772859         0.000000     
0.00000000000005100000        0.784322        0.000000         0.765869         0.000000     
0.00000000000005200000        0.777289        0.000000         0.758836         0.000000     
0.00000000000005300000        0.770218        0.000000         0.751764         0.000000     
0.00000000000005400000        0.763111        0.000000         0.744657         0.000000     
0.00000000000005500000        0.755972        0.000000         0.737518         0.000000     
0.00000000000005600000        0.748805        0.000000         0.730351         0.000000     
0.00000000000005700000        0.741613        0.000000         0.723159         0.000000     
0.00000000000005800000        0.734399        0.000000         0.715946         0.000000     
0.00000000000005900000        0.727167        0.000000         0.708714         0.000000     
0.00000000000006000000        0.719921        0.000000         0.701467         0.000000     
0.00000000000006100000        0.712662        0.000000         0.694208         0.000000     
0.00000000000006200000        0.705394        0.000000         0.686941         0.000000     
0.00000000000006300000        0.698121        0.000000         0.679667         0.000000     
0.00000000000006400000        0.690844        0.000000         0.672390         0.000000     
0.00000000000006500000        0.683567        0.000000         0.665113         0.000000     
0.00000000000006600000        0.676292        0.000000         0.657839         0.000000     
0.00000000000006700000        0.669023        0.000000         0.650569         0.000000     
0.00000000000006800000        0.661761        0.000000         0.643307         0.000000     
0.00000000000006900000        0.654508        0.000000         0.636055         0.000000     
0.00000000000007000000        0.647269        0.000000         0.628815         0.000000     
0.00000000000007100000        0.640044        0.000000         0.621590         0.000000     
0.00000000000007200000        0.632835        0.000000         0.614382         0.000000     
0.00000000000007300000        0.625646        0.000000         0.607192         0.000000     
0.00000000000007400000        0.618478        0.000000         0.600024         0.000000     
0.00000000000007500000        0.611332        0.000000         0.592879         0.000000     
0.00000000000007600000        0.604212        0.000000         0.585758         0.000000     
0.00000000000007700000        0.597118        0.000000         0.578664         0.000000     
0.00000000000007800000        0.590052        0.000000         0.571598         0.000000     
0.00000000000007900000        0.583016        0.000000         0.564563         0.000000     
0.00000000000008000000        0.576013        0.000000         0.557559         0.000000     
0.00000000000008100000        0.569042        0.000000         0.550588         0.000000     
0.00000000000008200000        0.562105        0.000000         0.543652         0.000000     
0.00000000000008300000        0.555205        0.000000         0.536751         0.000000     
0.00000000000008400000        0.548342        0.000000         0.529888         0.000000     
0.00000000000008500000        0.541517        0.000000         0.523064         0.000000     
0.00000000000008600000        0.534732        0.000000         0.516279         0.000000     
0.00000000000008700000        0.527988        0.000000         0.509534         0.000000     
0.00000000000008800000        0.521285        0.000000         0.502832         0.000000     
0.00000000000008900000        0.514626        0.000000         0.496172         0.000000     
0.00000000000009000000        0.508010        0.000000         0.489556         0.000000     
0.00000000000009100000        0.501439        0.000000         0.482985         0.000000     
0.00000000000009200000        0.494913        0.000000         0.476459         0.000000     
0.00000000000009300000        0.488433        0.000000         0.469980         0.000000     
0.00000000000009400000        0.482001        0.000000         0.463547         0.000000     
0.00000000000009500000        0.475616        0.000000         0.457163         0.000000     
0.00000000000009600000        0.469280        0.000000         0.450826         0.000000     
0.00000000000009700000        0.462992        0.000000         0.444539         0.000000     
0.00000000000009800000        0.456754        0.000000         0.438301         0.000000     
0.00000000000009900000        0.450566        0.000000         0.432113         0.000000     
0.00000000000010000000        0.444429        0.000000         0.425975         0.000000     
0.00000000000010100000        0.438342        0.000000         0.419889         0.000000     
0.00000000000010200000        0.432307        0.000000         0.413854         0.000000     
0.00000000000010300000        0.426324        0.000000         0.407870         0.000000     
0.00000000000010400000        0.420392        0.000000         0.401939         0.000000     
0.00000000000010500000        0.414513        0.000000         0.396060         0.000000     
0.00000000000010600000        0.408687        0.000000         0.390234         0.000000     
0.00000000000010700000        0.402914        0.000000         0.384460         0.000000     
0.00000000000010800000        0.397194        0.000000         0.378740         0.000000     
0.00000000000010900000        0.391527        0.000000         0.373073         0.000000     
0.00000000000011000000        0.385913        0.000000         0.367460         0.000000     
0.00000000000011100000        0.380354        0.000000         0.361900         0.000000     
0.00000000000011200000        0.374848        0.000000         0.356395         0.000000     
0.00000000000011300000        0.369396        0.000000         0.350943         0.000000     
0.00000000000011400000        0.363998        0.000000         0.345545         0.000000     
0.00000000000011500000        0.358655        0.000000         0.340201         0.000000     
0.00000000000011600000        0.353365        0.000000         0.334912         0.000000     
0.00000000000011700000        0.348130        0.000000         0.329677         0.000000     
0.00000000000011800000        0.342949        0.000000         0.324495         0.000000     
0.00000000000011900000        0.337822        0.000000         0.319369         0.000000     
0.00000000000012000000        0.332750        0.000000         0.314296         0.000000     
0.00000000000012100000        0.327731        0.000000         0.309278         0.000000     
0.00000000000012200000        0.322767        0.000000         0.304314         0.000000     
0.00000000000012300000        0.317857        0.000000         0.299404         0.000000     
0.00000000000012400000        0.313001        0.000000         0.294548         0.000000     
0.00000000000012500000        0.308199        0.000000         0.289746         0.000000     
0.00000000000012600000        0.303451        0.000000         0.284998         0.000000     
0.00000000000012700000        0.298757        0.000000         0.280304         0.000000     
0.00000000000012800000        0.294117        0.000000         0.275663         0.000000     
0.00000000000012900000        0.289530        0.000000         0.271076         0.000000     
0.00000000000013000000        0.284997        0.000000         0.266543         0.000000     
0.00000000000013100000        0.280517        0.000000         0.262063         0.000000     
0.00000000000013200000        0.276090        0.000000         0.257637         0.000000     
0.00000000000013300000        0.271716        0.000000         0.253263         0.000000     
0.00000000000013400000        0.267396        0.000000         0.248942         0.000000     
0.00000000000013500000        0.263128        0.000000         0.244674         0.000000     
0.00000000000013600000        0.258912        0.000000         0.240459         0.000000     
0.00000000000013700000        0.254749        0.000000         0.236296         0.000000     
0.00000000000013800000        0.250639        0.000000         0.232185         0.000000     
0.00000000000013900000        0.246580        0.000000         0.228126         0.000000     
0.00000000000014000000        0.242573        0.000000         0.224119         0.000000     
0.00000000000014100000        0.238617        0.000000         0.220164         0.000000     
0.00000000000014200000        0.234713        0.000000         0.216260         0.000000     
0.00000000000014300000        0.230860        0.000000         0.212407         0.000000     
0.00000000000014400000        0.227058        0.000000         0.208605         0.000000     
0.00000000000014500000        0.223307        0.000000         0.204853         0.000000     
0.00000000000014600000        0.219606        0.000000         0.201152         0.000000     
0.00000000000014700000        0.215955        0.000000         0.197501         0.000000     
0.00000000000014800000        0.212354        0.000000         0.193900         0.000000     
0.00000000000014900000        0.208802        0.000000         0.190349         0.000000     
0.00000000000015000000        0.205300        0.000000         0.186847         0.000000     
0.00000000000015100000        0.201847        0.000000         0.183393         0.000000     
0.00000000000015200000        0.198442        0.000000         0.179989         0.000000     
0.00000000000015300000        0.195086        0.000000         0.176633         0.000000     
0.00000000000015400000        0.191778        0.000000         0.173325         0.000000     
0.00000000000015500000        0.188518        0.000000         0.170065         0.000000     
0.00000000000015600000        0.185305        0.000000         0.166852         0.000000     
0.00000000000015700000        0.182140        0.000000         0.163686         0.000000     
0.00000000000015800000        0.179021        0.000000         0.160568         0.000000     
0.00000000000015900000        0.175949        0.000000         0.157495         0.000000     
0.00000000000016000000        0.172923        0.000000         0.154469         0.000000     
0.00000000000016100000        0.169942        0.000000         0.151489         0.000000     
0.00000000000016200000        0.167007        0.000000         0.148553         0.000000     
0.00000000000016300000        0.164117        0.000000         0.145663         0.000000     
0.00000000000016400000        0.161271        0.000000         0.142818         0.000000     
0.00000000000016500000        0.158470        0.000000         0.140017         0.000000     
0.00000000000016600000        0.155713        0.000000         0.137259         0.000000     
0.00000000000016700000        0.152999        0.000000         0.134545         0.000000     
0.00000000000016800000        0.150328        0.000000         0.131875         0.000000     
0.00000000000016900000        0.147700        0.000000         0.129246         0.000000     
0.00000000000017000000        0.145114        0.000000         0.126661         0.000000     
0.00000000000017100000        0.142570        0.000000         0.124116         0.000000     
0.00000000000017200000        0.140067        0.000000         0.121614         0.000000     
0.00000000000017300000        0.137606        0.000000         0.119152         0.000000     
0.00000000000017400000        0.135185        0.000000         0.116731         0.000000     
0.00000000000017500000        0.132804        0.000000         0.114350         0.000000     
0.00000000000017600000        0.130463        0.000000         0.112009         0.000000     
0.00000000000017700000        0.128161        0.000000         0.109707         0.000000     
0.00000000000017800000        0.125898        0.000000         0.107444         0.000000     
0.00000000000017900000        0.123673        0.000000         0.105219         0.000000     
0.00000000000018000000        0.121486        0.000000         0.103033         0.000000     
0.00000000000018100000        0.119337        0.000000         0.100883         0.000000     
0.00000000000018200000        0.117225        0.000000         0.098771         0.000000     
0.00000000000018300000        0.115149        0.000000         0.096695         0.000000     
0.00000000000018400000        0.113109        0.000000         0.094656         0.000000     
0.00000000000018500000        0.111105        0.000000         0.092652         0.000000     
0.00000000000018600000        0.109136        0.000000         0.090683         0.000000     
0.00000000000018700000        0.107202        0.000000         0.088749         0.000000     
0.00000000000018800000        0.105302        0.000000         0.086849         0.000000     
0.00000000000018900000        0.103436        0.000000         0.084983         0.000000     
0.00000000000019000000        0.101603        0.000000         0.083150         0.000000     
0.00000000000019100000        0.099803        0.000000         0.081350         0.000000     
0.00000000000019200000        0.098036        0.000000         0.079582         0.000000     
0.00000000000019300000        0.096300        0.000000         0.077847         0.000000     
0.00000000000019400000        0.094596        0.000000         0.076142         0.000000     
0.00000000000019500000        0.092923        0.000000         0.074469         0.000000     
0.00000000000019600000        0.091280        0.000000         0.072826         0.000000     
0.00000000000019700000        0.089667        0.000000         0.071214         0.000000     
0.00000000000019800000        0.088084        0.000000         0.069630         0.000000     
0.00000000000019900000        0.086530        0.000000         0.068076         0.000000     
0.00000000000020000000        0.085004        0.000000         0.066551         0.000000     
0.00000000000020100000        0.083507        0.000000         0.065054         0.000000     
0.00000000000020200000        0.082038        0.000000         0.063584         0.000000     
0.00000000000020300000        0.080596        0.000000         0.062142         0.000000     
0.00000000000020400000        0.079180        0.000000         0.060727         0.000000     
0.00000000000020500000        0.077791        0.000000         0.059338         0.000000     
0.00000000000020600000        0.076428        0.000000         0.057975         0.000000     
0.00000000000020700000        0.075091        0.000000         0.056637         0.000000     
0.00000000000020800000        0.073778        0.000000         0.055325         0.000000     
0.00000000000020900000        0.072490        0.000000         0.054037         0.000000     
0.00000000000021000000        0.071226        0.000000         0.052773         0.000000     
0.00000000000021100000        0.069987        0.000000         0.051533         0.000000     
0.00000000000021200000        0.068770        0.000000         0.050316         0.000000     
0.00000000000021300000        0.067576        0.000000         0.049123         0.000000     
0.00000000000021400000        0.066405        0.000000         0.047952         0.000000     
0.00000000000021500000        0.065256        0.000000         0.046802         0.000000     
0.00000000000021600000        0.064129        0.000000         0.045675         0.000000     
0.00000000000021700000        0.063022        0.000000         0.044569         0.000000     
0.00000000000021800000        0.061937        0.000000         0.043484         0.000000     
0.00000000000021900000        0.060872        0.000000         0.042419         0.000000     
0.00000000000022000000        0.059828        0.000000         0.041374         0.000000     
0.00000000000022100000        0.058803        0.000000         0.040349         0.000000     
0.00000000000022200000        0.057797        0.000000         0.039344         0.000000     
0.00000000000022300000        0.056811        0.000000         0.038357         0.000000     
0.00000000000022400000        0.055842        0.000000         0.037389         0.000000     
0.00000000000022500000        0.054893        0.000000         0.036439         0.000000     
0.00000000000022600000        0.053961        0.000000         0.035507         0.000000     
0.00000000000022700000        0.053046        0.000000         0.034593         0.000000     
0.00000000000022800000        0.052149        0.000000         0.033695         0.000000     
0.00000000000022900000        0.051269        0.000000         0.032815         0.000000     
0.00000000000023000000        0.050405        0.000000         0.031951         0.000000     
0.00000000000023100000        0.049557        0.000000         0.031103         0.000000     
0.00000000000023200000        0.048725        0.000000         0.030271         0.000000     
0.00000000000023300000        0.047909        0.000000         0.029455         0.000000     
0.00000000000023400000        0.047107        0.000000         0.028654         0.000000     
0.00000000000023500000        0.046321        0.000000         0.027868         0.000000     
0.00000000000023600000        0.045549        0.000000         0.027096         0.000000     
0.00000000000023700000        0.044792        0.000000         0.026339         0.000000     
0.00000000000023800000        0.044049        0.000000         0.025595         0.000000     
0.00000000000023900000        0.043319        0.000000         0.024865         0.000000     
0.00000000000024000000        0.042603        0.000000         0.024149         0.000000     
0.00000000000024100000        0.041900        0.000000         0.023446         0.000000     
0.00000000000024200000        0.041210        0.000000         0.022756         0.000000     
0.00000000000024300000        0.040532        0.000000         0.022079         0.000000     
0.00000000000024400000        0.039867        0.000000         0.021413         0.000000     
0.00000000000024500000        0.039214        0.000000         0.020760         0.000000     
0.00000000000024600000        0.038573        0.000000         0.020119         0.000000     
0.00000000000024700000        0.037943        0.000000         0.019489         0.000000     
0.00000000000024800000        0.037325        0.000000         0.018871         0.000000     
0.00000000000024900000        0.036718        0.000000         0.018264         0.000000     
0.00000000000025000000        0.036122        0.000000         0.017668         0.000000     
0.00000000000025100000        0.035536        0.000000         0.017083         0.000000     
0.00000000000025200000        0.034961        0.000000         0.016508         0.000000     
0.00000000000025300000        0.034396        0.000000         0.015943         0.000000     
0.00000000000025400000        0.033842        0.000000         0.015388         0.000000     
0.00000000000025500000        0.033297        0.000000         0.014843         0.000000     
0.00000000000025600000        0.032762        0.000000         0.014308         0.000000     
0.00000000000025700000        0.032236        0.000000         0.013782         0.000000     
0.00000000000025800000        0.031719        0.000000         0.013266         0.000000     
0.00000000000025900000        0.031212        0.000000         0.012758         0.000000     
0.00000000000026000000        0.030713        0.000000         0.012260         0.000000     
0.00000000000026100000        0.030223        0.000000         0.011770         0.000000     
0.00000000000026200000        0.029742        0.000000         0.011288         0.000000     
0.00000000000026300000        0.029269        0.000000         0.010815         0.000000     
0.00000000000026400000        0.028804        0.000000         0.010350         0.000000     
0.00000000000026500000        0.028347        0.000000         0.009894         0.000000     
0.00000000000026600000        0.027898        0.000000         0.009445         0.000000     
0.00000000000026700000        0.027457        0.000000         0.009003         0.000000     
0.00000000000026800000        0.027023        0.000000         0.008570         0.000000     
0.00000000000026900000        0.026597        0.000000         0.008144         0.000000     
0.00000000000027000000        0.026178        0.000000         0.007725         0.000000     
0.00000000000027100000        0.025766        0.000000         0.007313         0.000000     
0.00000000000027200000        0.025361        0.000000         0.006908         0.000000     
0.00000000000027300000        0.024963        0.000000         0.006510         0.000000     
0.00000000000027400000        0.024572        0.000000         0.006119         0.000000     
0.00000000000027500000        0.024188        0.000000         0.005734         0.000000     
0.00000000000027600000        0.023809        0.000000         0.005356         0.000000     
0.00000000000027700000        0.023438        0.000000         0.004984         0.000000     
0.00000000000027800000        0.023072        0.000000         0.004618         0.000000     
0.00000000000027900000        0.022713        0.000000         0.004259         0.000000     
0.00000000000028000000        0.022359        0.000000         0.003906         0.000000     
0.00000000000028100000        0.022012        0.000000         0.003558         0.000000     
0.00000000000028200000        0.021670        0.000000         0.003216         0.000000     
0.00000000000028300000        0.021334        0.000000         0.002880         0.000000     
0.00000000000028400000        0.021003        0.000000         0.002550         0.000000     
0.00000000000028500000        0.020678        0.000000         0.002225         0.000000     
0.00000000000028600000        0.020359        0.000000         0.001905         0.000000     
0.00000000000028700000        0.020044        0.000000         0.001591         0.000000     
0.00000000000028800000        0.019735        0.000000         0.001282         0.000000     
0.00000000000028900000        0.019431        0.000000         0.000978         0.000000     
0.00000000000029000000        0.019132        0.000000         0.000679         0.000000     
0.00000000000029100000        0.018838        0.000000         0.000385         0.000000     
0.00000000000029200000        0.018549        0.000000         0.000096         0.000000     
0.00000000000029300000        0.018265        0.000000         -0.000189         0.000000     
0.00000000000029400000        0.017985        0.000000         -0.000468         0.000000     
0.00000000000029500000        0.017710        0.000000         -0.000743         0.000000     
0.00000000000029600000        0.017440        0.000000         -0.001014         0.000000     
0.00000000000029700000        0.017174        0.000000         -0.001280         0.000000     
0.00000000000029800000        0.016912        0.000000         -0.001542         0.000000     
0.00000000000029900000        0.016654        0.000000         -0.001799         0.000000     
0.00000000000030000000        0.016401        0.000000         -0.002052         0.000000     
0.00000000000030100000        0.016152        0.000000         -0.002301         0.000000     
0.00000000000030200000        0.015907        0.000000         -0.002546         0.000000     
0.00000000000030300000        0.015667        0.000000         -0.002787         0.000000     
0.00000000000030400000        0.015430        0.000000         -0.003024         0.000000     
0.00000000000030500000        0.015197        0.000000         -0.003257         0.000000     
0.00000000000030600000        0.014968        0.000000         -0.003486         0.000000     
0.00000000000030700000        0.014742        0.000000         -0.003711         0.000000     
0.00000000000030800000        0.014521        0.000000         -0.003933         0.000000     
0.00000000000030900000        0.014303        0.000000         -0.004151         0.000000     
0.00000000000031000000        0.014088        0.000000         -0.004365         0.000000     
0.00000000000031100000        0.013878        0.000000         -0.004576         0.000000     
0.00000000000031200000        0.013670        0.000000         -0.004783         0.000000     
0.00000000000031300000        0.013466        0.000000         -0.004987         0.000000     
0.00000000000031400000        0.013266        0.000000         -0.005188         0.000000     
0.00000000000031500000        0.013069        0.000000         -0.005385         0.000000     
0.00000000000031600000        0.012875        0.000000         -0.005579         0.000000     