# Time    F_t_Re (QM_E17)      F_t_Im (QM_E17)       F_t_Re_erf       F_t_Im_erf  
0.00000000000000000000        1.000000        0.000000         0.758655         0.001826     
0.00000000000000100000        0.999200        -0.029311         0.757855         -0.027485     
0.00000000000000200000        0.996803        -0.058509         0.755458         -0.056683     
0.00000000000000300000        0.992826        -0.087482         0.751481         -0.085656     
0.00000000000000400000        0.987291        -0.116119         0.745946         -0.114293     
0.00000000000000500000        0.980232        -0.144313         0.738887         -0.142487     
0.00000000000000600000        0.971691        -0.171960         0.730346         -0.170134     
0.00000000000000700000        0.961718        -0.198962         0.720373         -0.197135     
0.00000000000000800000        0.950373        -0.225223         0.709028         -0.223397     
0.00000000000000900000        0.937719        -0.250657         0.696374         -0.248831     
0.00000000000001000000        0.923831        -0.275183         0.682486         -0.273357     
0.00000000000001100000        0.908784        -0.298726         0.667439         -0.296900     
0.00000000000001200000        0.892662        -0.321220         0.651317         -0.319394     
0.00000000000001300000        0.875553        -0.342607         0.634208         -0.340781     
0.00000000000001400000        0.857546        -0.362837         0.616201         -0.361010     
0.00000000000001500000        0.838733        -0.381867         0.597388         -0.380041     
0.00000000000001600000        0.819210        -0.399665         0.577865         -0.397839     
0.00000000000001700000        0.799071        -0.416205         0.557726         -0.414379     
0.00000000000001800000        0.778411        -0.431471         0.537066         -0.429645     
0.00000000000001900000        0.757325        -0.445454         0.515980         -0.443627     
0.00000000000002000000        0.735904        -0.458151         0.494559         -0.456325     
0.00000000000002100000        0.714240        -0.469571         0.472895         -0.467745     
0.00000000000002200000        0.692419        -0.479726         0.451074         -0.477899     
0.00000000000002300000        0.670527        -0.488635         0.429182         -0.486808     
0.00000000000002400000        0.648643        -0.496324         0.407298         -0.494497     
0.00000000000002500000        0.626844        -0.502824         0.385499         -0.500998     
0.00000000000002600000        0.605200        -0.508171         0.363855         -0.506345     
0.00000000000002700000        0.583779        -0.512406         0.342434         -0.510579     
0.00000000000002800000        0.562643        -0.515572         0.321298         -0.513745     
0.00000000000002900000        0.541846        -0.517715         0.300501         -0.515889     
0.00000000000003000000        0.521441        -0.518887         0.280096         -0.517061     
0.00000000000003100000        0.501473        -0.519138         0.260128         -0.517312     
0.00000000000003200000        0.481983        -0.518522         0.240638         -0.516695     
0.00000000000003300000        0.463004        -0.517092         0.221659         -0.515266     
0.00000000000003400000        0.444569        -0.514904         0.203224         -0.513077     
0.00000000000003500000        0.426700        -0.512011         0.185355         -0.510185     
0.00000000000003600000        0.409420        -0.508469         0.168075         -0.506643     
0.00000000000003700000        0.392744        -0.504331         0.151399         -0.502505     
0.00000000000003800000        0.376684        -0.499650         0.135339         -0.497824     
0.00000000000003900000        0.361247        -0.494477         0.119902         -0.492651     
0.00000000000004000000        0.346438        -0.488862         0.105093         -0.487036     
0.00000000000004100000        0.332258        -0.482853         0.090912         -0.481027     
0.00000000000004200000        0.318703        -0.476496         0.077358         -0.474670     
0.00000000000004300000        0.305769        -0.469835         0.064424         -0.468008     
0.00000000000004400000        0.293448        -0.462912         0.052103         -0.461085     
0.00000000000004500000        0.281730        -0.455766         0.040385         -0.453939     
0.00000000000004600000        0.270603        -0.448435         0.029258         -0.446608     
0.00000000000004700000        0.260054        -0.440953         0.018709         -0.439127     
0.00000000000004800000        0.250068        -0.433354         0.008723         -0.431527     
0.00000000000004900000        0.240627        -0.425666         -0.000718         -0.423840     
0.00000000000005000000        0.231716        -0.417919         -0.009629         -0.416093     
0.00000000000005100000        0.223316        -0.410138         -0.018029         -0.408311     
0.00000000000005200000        0.215408        -0.402346         -0.025937         -0.400519     
0.00000000000005300000        0.207974        -0.394565         -0.033371         -0.392738     
0.00000000000005400000        0.200994        -0.386813         -0.040351         -0.384987     
0.00000000000005500000        0.194448        -0.379110         -0.046897         -0.377283     
0.00000000000005600000        0.188318        -0.371469         -0.053027         -0.369643     
0.00000000000005700000        0.182584        -0.363906         -0.058761         -0.362080     
0.00000000000005800000        0.177227        -0.356432         -0.064118         -0.354606     
0.00000000000005900000        0.172229        -0.349058         -0.069116         -0.347232     
0.00000000000006000000        0.167570        -0.341794         -0.073775         -0.339967     
0.00000000000006100000        0.163234        -0.334647         -0.078111         -0.332820     
0.00000000000006200000        0.159202        -0.327624         -0.082143         -0.325798     
0.00000000000006300000        0.155458        -0.320731         -0.085887         -0.318905     
0.00000000000006400000        0.151985        -0.313973         -0.089360         -0.312147     
0.00000000000006500000        0.148769        -0.307353         -0.092576         -0.305527     
0.00000000000006600000        0.145793        -0.300875         -0.095552         -0.299048     
0.00000000000006700000        0.143043        -0.294539         -0.098302         -0.292713     
0.00000000000006800000        0.140505        -0.288348         -0.100840         -0.286522     
0.00000000000006900000        0.138167        -0.282302         -0.103178         -0.280476     
0.00000000000007000000        0.136015        -0.276402         -0.105330         -0.274575     
0.00000000000007100000        0.134038        -0.270647         -0.107307         -0.268820     
0.00000000000007200000        0.132224        -0.265036         -0.109121         -0.263210     
0.00000000000007300000        0.130562        -0.259568         -0.110783         -0.257742     
0.00000000000007400000        0.129042        -0.254243         -0.112303         -0.252416     
0.00000000000007500000        0.127655        -0.249057         -0.113690         -0.247230     
0.00000000000007600000        0.126390        -0.244009         -0.114955         -0.242183     
0.00000000000007700000        0.125240        -0.239097         -0.116105         -0.237270     
0.00000000000007800000        0.124196        -0.234318         -0.117149         -0.232492     
0.00000000000007900000        0.123251        -0.229670         -0.118094         -0.227844     
0.00000000000008000000        0.122398        -0.225150         -0.118947         -0.223324     
0.00000000000008100000        0.121628        -0.220755         -0.119717         -0.218929     
0.00000000000008200000        0.120937        -0.216483         -0.120408         -0.214656     
0.00000000000008300000        0.120318        -0.212330         -0.121027         -0.210504     
0.00000000000008400000        0.119766        -0.208294         -0.121579         -0.206467     
0.00000000000008500000        0.119274        -0.204371         -0.122071         -0.202545     
0.00000000000008600000        0.118839        -0.200559         -0.122506         -0.198733     
0.00000000000008700000        0.118455        -0.196855         -0.122890         -0.195028     
0.00000000000008800000        0.118117        -0.193255         -0.123228         -0.191429     
0.00000000000008900000        0.117823        -0.189757         -0.123522         -0.187931     
0.00000000000009000000        0.117568        -0.186358         -0.123777         -0.184532     
0.00000000000009100000        0.117347        -0.183055         -0.123998         -0.181229     
0.00000000000009200000        0.117159        -0.179846         -0.124186         -0.178019     
0.00000000000009300000        0.116999        -0.176726         -0.124346         -0.174900     
0.00000000000009400000        0.116865        -0.173695         -0.124480         -0.171868     
0.00000000000009500000        0.116754        -0.170748         -0.124591         -0.168921     
0.00000000000009600000        0.116662        -0.167883         -0.124683         -0.166057     
0.00000000000009700000        0.116589        -0.165099         -0.124756         -0.163272     
0.00000000000009800000        0.116530        -0.162391         -0.124815         -0.160565     
0.00000000000009900000        0.116484        -0.159758         -0.124861         -0.157932     
0.00000000000010000000        0.116449        -0.157198         -0.124896         -0.155371     
0.00000000000010100000        0.116423        -0.154707         -0.124922         -0.152881     
0.00000000000010200000        0.116404        -0.152284         -0.124941         -0.150458     
0.00000000000010300000        0.116390        -0.149926         -0.124955         -0.148100     
0.00000000000010400000        0.116380        -0.147631         -0.124965         -0.145805     
0.00000000000010500000        0.116372        -0.145397         -0.124973         -0.143570     
0.00000000000010600000        0.116364        -0.143221         -0.124981         -0.141394     
0.00000000000010700000        0.116356        -0.141101         -0.124989         -0.139275     
0.00000000000010800000        0.116345        -0.139036         -0.125000         -0.137210     
0.00000000000010900000        0.116331        -0.137023         -0.125014         -0.135197     
0.00000000000011000000        0.116313        -0.135061         -0.125032         -0.133234     
0.00000000000011100000        0.116289        -0.133146         -0.125056         -0.131320     
0.00000000000011200000        0.116259        -0.131278         -0.125086         -0.129452     
0.00000000000011300000        0.116221        -0.129454         -0.125124         -0.127628     
0.00000000000011400000        0.116174        -0.127673         -0.125171         -0.125846     
0.00000000000011500000        0.116119        -0.125932         -0.125226         -0.124106     
0.00000000000011600000        0.116053        -0.124230         -0.125292         -0.122403     
0.00000000000011700000        0.115977        -0.122564         -0.125368         -0.120738     
0.00000000000011800000        0.115890        -0.120934         -0.125455         -0.119107     
0.00000000000011900000        0.115791        -0.119336         -0.125554         -0.117510     
0.00000000000012000000        0.115680        -0.117771         -0.125665         -0.115944     
0.00000000000012100000        0.115556        -0.116235         -0.125789         -0.114408     
0.00000000000012200000        0.115419        -0.114726         -0.125926         -0.112900     
0.00000000000012300000        0.115268        -0.113245         -0.126077         -0.111418     
0.00000000000012400000        0.115104        -0.111788         -0.126241         -0.109961     
0.00000000000012500000        0.114926        -0.110354         -0.126419         -0.108527     
0.00000000000012600000        0.114734        -0.108941         -0.126611         -0.107115     
0.00000000000012700000        0.114528        -0.107548         -0.126817         -0.105722     
0.00000000000012800000        0.114308        -0.106174         -0.127038         -0.104347     
0.00000000000012900000        0.114073        -0.104816         -0.127272         -0.102990     
0.00000000000013000000        0.113824        -0.103474         -0.127521         -0.101647     
0.00000000000013100000        0.113562        -0.102145         -0.127783         -0.100319     
0.00000000000013200000        0.113286        -0.100829         -0.128060         -0.099003     
0.00000000000013300000        0.112996        -0.099524         -0.128349         -0.097697     
0.00000000000013400000        0.112692        -0.098228         -0.128653         -0.096402     
0.00000000000013500000        0.112376        -0.096941         -0.128969         -0.095115     
0.00000000000013600000        0.112048        -0.095661         -0.129297         -0.093835     
0.00000000000013700000        0.111707        -0.094387         -0.129638         -0.092561     
0.00000000000013800000        0.111354        -0.093118         -0.129991         -0.091292     
0.00000000000013900000        0.110991        -0.091853         -0.130354         -0.090026     
0.00000000000014000000        0.110616        -0.090590         -0.130729         -0.088764     
0.00000000000014100000        0.110232        -0.089329         -0.131113         -0.087502     
0.00000000000014200000        0.109838        -0.088068         -0.131507         -0.086242     
0.00000000000014300000        0.109435        -0.086807         -0.131910         -0.084981     
0.00000000000014400000        0.109024        -0.085545         -0.132321         -0.083719     
0.00000000000014500000        0.108605        -0.084281         -0.132740         -0.082455     
0.00000000000014600000        0.108179        -0.083015         -0.133166         -0.081188     
0.00000000000014700000        0.107748        -0.081745         -0.133597         -0.079919     
0.00000000000014800000        0.107310        -0.080471         -0.134035         -0.078645     
0.00000000000014900000        0.106869        -0.079193         -0.134476         -0.077367     
0.00000000000015000000        0.106423        -0.077910         -0.134922         -0.076084     
0.00000000000015100000        0.105974        -0.076621         -0.135371         -0.074795     
0.00000000000015200000        0.105522        -0.075327         -0.135823         -0.073501     
0.00000000000015300000        0.105069        -0.074026         -0.136276         -0.072200     
0.00000000000015400000        0.104614        -0.072719         -0.136731         -0.070893     
0.00000000000015500000        0.104160        -0.071405         -0.137185         -0.069579     
0.00000000000015600000        0.103705        -0.070084         -0.137640         -0.068258     
0.00000000000015700000        0.103252        -0.068757         -0.138093         -0.066930     
0.00000000000015800000        0.102800        -0.067421         -0.138545         -0.065595     
0.00000000000015900000        0.102350        -0.066079         -0.138995         -0.064253     
0.00000000000016000000        0.101904        -0.064729         -0.139441         -0.062903     
0.00000000000016100000        0.101461        -0.063372         -0.139884         -0.061546     
0.00000000000016200000        0.101022        -0.062008         -0.140323         -0.060181     
0.00000000000016300000        0.100588        -0.060636         -0.140757         -0.058810     
0.00000000000016400000        0.100158        -0.059258         -0.141187         -0.057431     
0.00000000000016500000        0.099735        -0.057872         -0.141610         -0.056046     
0.00000000000016600000        0.099317        -0.056479         -0.142028         -0.054653     
0.00000000000016700000        0.098906        -0.055080         -0.142439         -0.053254     
0.00000000000016800000        0.098501        -0.053675         -0.142844         -0.051848     
0.00000000000016900000        0.098104        -0.052263         -0.143241         -0.050436     
0.00000000000017000000        0.097714        -0.050844         -0.143631         -0.049018     
0.00000000000017100000        0.097332        -0.049420         -0.144013         -0.047594     
0.00000000000017200000        0.096959        -0.047991         -0.144386         -0.046164     
0.00000000000017300000        0.096593        -0.046555         -0.144752         -0.044729     
0.00000000000017400000        0.096236        -0.045115         -0.145109         -0.043288     
0.00000000000017500000        0.095887        -0.043669         -0.145458         -0.041843     
0.00000000000017600000        0.095547        -0.042219         -0.145798         -0.040392     
0.00000000000017700000        0.095216        -0.040764         -0.146129         -0.038937     
0.00000000000017800000        0.094894        -0.039304         -0.146451         -0.037478     
0.00000000000017900000        0.094581        -0.037840         -0.146764         -0.036014     
0.00000000000018000000        0.094277        -0.036373         -0.147068         -0.034546     
0.00000000000018100000        0.093982        -0.034901         -0.147363         -0.033074     
0.00000000000018200000        0.093696        -0.033425         -0.147649         -0.031599     
0.00000000000018300000        0.093419        -0.031946         -0.147926         -0.030120     
0.00000000000018400000        0.093151        -0.030464         -0.148194         -0.028637     
0.00000000000018500000        0.092893        -0.028977         -0.148452         -0.027151     
0.00000000000018600000        0.092643        -0.027488         -0.148702         -0.025662     
0.00000000000018700000        0.092402        -0.025996         -0.148943         -0.024169     
0.00000000000018800000        0.092170        -0.024500         -0.149175         -0.022673     
0.00000000000018900000        0.091946        -0.023001         -0.149399         -0.021174     
0.00000000000019000000        0.091731        -0.021499         -0.149614         -0.019672     
0.00000000000019100000        0.091525        -0.019993         -0.149820         -0.018167     
0.00000000000019200000        0.091327        -0.018485         -0.150018         -0.016659     
0.00000000000019300000        0.091138        -0.016973         -0.150207         -0.015147     
0.00000000000019400000        0.090957        -0.015459         -0.150388         -0.013632     
0.00000000000019500000        0.090784        -0.013940         -0.150561         -0.012114     
0.00000000000019600000        0.090619        -0.012419         -0.150726         -0.010592     
0.00000000000019700000        0.090462        -0.010893         -0.150883         -0.009067     
0.00000000000019800000        0.090313        -0.009364         -0.151032         -0.007538     
0.00000000000019900000        0.090172        -0.007832         -0.151173         -0.006005     
0.00000000000020000000        0.090039        -0.006295         -0.151306         -0.004468     
0.00000000000020100000        0.089913        -0.004754         -0.151432         -0.002927     
0.00000000000020200000        0.089796        -0.003208         -0.151549         -0.001382     
0.00000000000020300000        0.089686        -0.001658         -0.151659         0.000168     
0.00000000000020400000        0.089583        -0.000103         -0.151762         0.001723     
0.00000000000020500000        0.089489        0.001457         -0.151856         0.003283     
0.00000000000020600000        0.089402        0.003023         -0.151943         0.004849     
0.00000000000020700000        0.089322        0.004594         -0.152023         0.006420     
0.00000000000020800000        0.089251        0.006171         -0.152094         0.007997     
0.00000000000020900000        0.089187        0.007754         -0.152158         0.009581     
0.00000000000021000000        0.089132        0.009344         -0.152214         0.011170     
0.00000000000021100000        0.089084        0.010941         -0.152261         0.012767     
0.00000000000021200000        0.089044        0.012545         -0.152301         0.014371     
0.00000000000021300000        0.089013        0.014156         -0.152332         0.015983     
0.00000000000021400000        0.088991        0.015776         -0.152354         0.017602     
0.00000000000021500000        0.088977        0.017403         -0.152368         0.019230     
0.00000000000021600000        0.088972        0.019039         -0.152373         0.020866     
0.00000000000021700000        0.088976        0.020684         -0.152369         0.022511     
0.00000000000021800000        0.088990        0.022339         -0.152355         0.024165     
0.00000000000021900000        0.089013        0.024003         -0.152332         0.025829     
0.00000000000022000000        0.089047        0.025677         -0.152298         0.027503     
0.00000000000022100000        0.089091        0.027361         -0.152254         0.029188     
0.00000000000022200000        0.089146        0.029056         -0.152199         0.030883     
0.00000000000022300000        0.089212        0.030762         -0.152133         0.032589     
0.00000000000022400000        0.089290        0.032480         -0.152055         0.034306     
0.00000000000022500000        0.089380        0.034209         -0.151965         0.036036     
0.00000000000022600000        0.089483        0.035951         -0.151862         0.037777     
0.00000000000022700000        0.089599        0.037704         -0.151746         0.039531     
0.00000000000022800000        0.089729        0.039471         -0.151616         0.041297     
0.00000000000022900000        0.089874        0.041250         -0.151472         0.043077     
0.00000000000023000000        0.090033        0.043043         -0.151312         0.044870     
0.00000000000023100000        0.090208        0.044849         -0.151137         0.046676     
0.00000000000023200000        0.090400        0.046669         -0.150945         0.048496     
0.00000000000023300000        0.090609        0.048503         -0.150736         0.050330     
0.00000000000023400000        0.090837        0.050351         -0.150508         0.052178     
0.00000000000023500000        0.091083        0.052214         -0.150262         0.054040     
0.00000000000023600000        0.091348        0.054090         -0.149997         0.055917     
0.00000000000023700000        0.091635        0.055982         -0.149710         0.057808     
0.00000000000023800000        0.091943        0.057887         -0.149402         0.059714     
0.00000000000023900000        0.092273        0.059807         -0.149072         0.061634     
0.00000000000024000000        0.092627        0.061742         -0.148718         0.063569     
0.00000000000024100000        0.093005        0.063691         -0.148340         0.065518     
0.00000000000024200000        0.093408        0.065655         -0.147937         0.067481     
0.00000000000024300000        0.093839        0.067632         -0.147507         0.069458     
0.00000000000024400000        0.094296        0.069623         -0.147049         0.071450     
0.00000000000024500000        0.094783        0.071628         -0.146563         0.073455     
0.00000000000024600000        0.095299        0.073646         -0.146046         0.075472     
0.00000000000024700000        0.095846        0.075677         -0.145499         0.077503     
0.00000000000024800000        0.096425        0.077720         -0.144921         0.079546     
0.00000000000024900000        0.097037        0.079774         -0.144308         0.081601     
0.00000000000025000000        0.097683        0.081840         -0.143662         0.083666     
0.00000000000025100000        0.098365        0.083916         -0.142980         0.085742     
0.00000000000025200000        0.099083        0.086002         -0.142262         0.087828     
0.00000000000025300000        0.099839        0.088096         -0.141506         0.089922     
0.00000000000025400000        0.100634        0.090198         -0.140711         0.092024     
0.00000000000025500000        0.101468        0.092306         -0.139877         0.094133     
0.00000000000025600000        0.102344        0.094421         -0.139001         0.096247     
0.00000000000025700000        0.103261        0.096540         -0.138084         0.098366     
0.00000000000025800000        0.104221        0.098662         -0.137124         0.100488     
0.00000000000025900000        0.105225        0.100785         -0.136120         0.102612     
0.00000000000026000000        0.106274        0.102910         -0.135071         0.104736     
0.00000000000026100000        0.107368        0.105033         -0.133977         0.106859     
0.00000000000026200000        0.108508        0.107153         -0.132837         0.108980     
0.00000000000026300000        0.109695        0.109270         -0.131650         0.111096     
0.00000000000026400000        0.110929        0.111380         -0.130416         0.113206     
0.00000000000026500000        0.112212        0.113482         -0.129133         0.115309     
0.00000000000026600000        0.113543        0.115575         -0.127802         0.117402     
0.00000000000026700000        0.114922        0.117657         -0.126423         0.119483     
0.00000000000026800000        0.116350        0.119724         -0.124995         0.121551     
0.00000000000026900000        0.117827        0.121777         -0.123518         0.123603     
0.00000000000027000000        0.119354        0.123812         -0.121991         0.125638     
0.00000000000027100000        0.120928        0.125828         -0.120417         0.127654     
0.00000000000027200000        0.122552        0.127822         -0.118793         0.129648     
0.00000000000027300000        0.124223        0.129792         -0.117122         0.131619     
0.00000000000027400000        0.125942        0.131737         -0.115403         0.133564     
0.00000000000027500000        0.127708        0.133654         -0.113637         0.135481     
0.00000000000027600000        0.129521        0.135542         -0.111824         0.137368     
0.00000000000027700000        0.131378        0.137397         -0.109967         0.139224     
0.00000000000027800000        0.133279        0.139219         -0.108066         0.141046     
0.00000000000027900000        0.135224        0.141006         -0.106121         0.142832     
0.00000000000028000000        0.137210        0.142754         -0.104135         0.144581     
0.00000000000028100000        0.139236        0.144464         -0.102109         0.146290     
0.00000000000028200000        0.141301        0.146133         -0.100044         0.147959     
0.00000000000028300000        0.143403        0.147759         -0.097942         0.149585     
0.00000000000028400000        0.145540        0.149340         -0.095805         0.151167     
0.00000000000028500000        0.147711        0.150877         -0.093634         0.152703     
0.00000000000028600000        0.149912        0.152366         -0.091433         0.154193     
0.00000000000028700000        0.152143        0.153808         -0.089202         0.155635     
0.00000000000028800000        0.154401        0.155201         -0.086944         0.157027     
0.00000000000028900000        0.156683        0.156544         -0.084662         0.158371     
0.00000000000029000000        0.158988        0.157837         -0.082357         0.159663     
0.00000000000029100000        0.161313        0.159078         -0.080032         0.160905     
0.00000000000029200000        0.163656        0.160268         -0.077689         0.162095     
0.00000000000029300000        0.166014        0.161406         -0.075331         0.163233     
0.00000000000029400000        0.168386        0.162493         -0.072959         0.164319     
0.00000000000029500000        0.170767        0.163528         -0.070578         0.165354     
0.00000000000029600000        0.173157        0.164511         -0.068188         0.166337     
0.00000000000029700000        0.175553        0.165443         -0.065792         0.167270     
0.00000000000029800000        0.177952        0.166325         -0.063393         0.168151     
0.00000000000029900000        0.180352        0.167157         -0.060993         0.168983     
0.00000000000030000000        0.182751        0.167940         -0.058594         0.169767     
0.00000000000030100000        0.185147        0.168675         -0.056198         0.170502     
0.00000000000030200000        0.187538        0.169364         -0.053807         0.171191     
0.00000000000030300000        0.189922        0.170008         -0.051423         0.171834     
0.00000000000030400000        0.192296        0.170607         -0.049049         0.172434     
0.00000000000030500000        0.194660        0.171165         -0.046685         0.172991     
0.00000000000030600000        0.197012        0.171681         -0.044333         0.173508     
0.00000000000030700000        0.199349        0.172159         -0.041996         0.173986     
0.00000000000030800000        0.201672        0.172601         -0.039673         0.174427     
0.00000000000030900000        0.203978        0.173007         -0.037367         0.174833     
0.00000000000031000000        0.206266        0.173380         -0.035079         0.175206     